
     Program PWSCF v.7.4.1 starts on  2Jul2025 at  7:23:24 

     This program is part of the open-source Quantum ESPRESSO suite
     for quantum simulation of materials; please cite
         "P. Giannozzi et al., J. Phys.:Condens. Matter 21 395502 (2009);
         "P. Giannozzi et al., J. Phys.:Condens. Matter 29 465901 (2017);
         "P. Giannozzi et al., J. Chem. Phys. 152 154105 (2020);
          URL http://www.quantum-espresso.org", 
     in publications or presentations arising from this work. More details at
     http://www.quantum-espresso.org/quote

     Parallel version (MPI & OpenMP), running on       4 processor cores
     Number of MPI processes:                 2
     Threads/MPI process:                     2

     MPI processes distributed on     1 nodes
     786 MiB available memory on the printing compute node when the environment starts

     Reading input from o2_scf.in

     Current dimensions of program PWSCF are:
     Max number of different atomic species (ntypx) = 10
     Max number of k-points (npk) =  40000
     Max angular momentum in pseudopotentials (lmaxx) =  4
     file O.pbe-n-kjpaw_psl.1.0.0.UPF: wavefunction(s)  2S 2P renormalized

     R & G space division:  proc/nbgrp/npool/nimage =       2
     Subspace diagonalization in iterative solution of the eigenvalue problem:
     a serial algorithm will be used


     Parallelization info
     --------------------
     sticks:   dense  smooth     PW     G-vecs:    dense   smooth      PW
     Min        1590     798    218                67521    23916    3560
     Max        1591     799    219                67522    23917    3563
     Sum        3181    1597    437               135043    47833    7123

     Using Slab Decomposition



     bravais-lattice index     =            1
     lattice parameter (alat)  =      10.0000  a.u.
     unit-cell volume          =    1000.0000 (a.u.)^3
     number of atoms/cell      =            2
     number of atomic types    =            1
     number of electrons       =        12.00
     number of Kohn-Sham states=           10
     kinetic-energy cutoff     =      50.0000  Ry
     charge density cutoff     =     400.0000  Ry
     scf convergence threshold =      1.0E-08
     mixing beta               =       0.7000
     number of iterations used =            8  plain     mixing
     Exchange-correlation= SLA  PW   PBX  PBC
                           (   1   4   3   4   0   0   0)

     celldm(1)=  10.000000  celldm(2)=   0.000000  celldm(3)=   0.000000
     celldm(4)=   0.000000  celldm(5)=   0.000000  celldm(6)=   0.000000

     crystal axes: (cart. coord. in units of alat)
               a(1) = (   1.000000   0.000000   0.000000 )  
               a(2) = (   0.000000   1.000000   0.000000 )  
               a(3) = (   0.000000   0.000000   1.000000 )  

     reciprocal axes: (cart. coord. in units 2 pi/alat)
               b(1) = (  1.000000  0.000000  0.000000 )  
               b(2) = (  0.000000  1.000000  0.000000 )  
               b(3) = (  0.000000  0.000000  1.000000 )  


     PseudoPot. # 1 for O  read from file:
     ./O.pbe-n-kjpaw_psl.1.0.0.UPF
     MD5 check sum: e99d9cef9b487d1ca56f5b95ecd0fd7a
     Pseudo is Projector augmented-wave + core cor, Zval =  6.0
     Generated using &quot;atomic&quot; code by A. Dal Corso  v.6.3
     Shape of augmentation charge: PSQ
     Using radial grid of 1095 points,  4 beta functions with: 
                l(1) =   0
                l(2) =   0
                l(3) =   1
                l(4) =   1
     Q(r) pseudized with 0 coefficients 


     atomic species   valence    mass     pseudopotential
     O                 6.00    16.00000     O ( 1.00)

     Starting magnetic structure 
     atomic species   magnetization
     O               0.500

      8 Sym. Ops. (no inversion) found


                                    s                        frac. trans.

      isym =  1     identity                                     

 cryst.   s( 1) = (     1          0          0      )
                  (     0          1          0      )
                  (     0          0          1      )

 cart.    s( 1) = (  1.0000000  0.0000000  0.0000000 )
                  (  0.0000000  1.0000000  0.0000000 )
                  (  0.0000000  0.0000000  1.0000000 )


      isym =  2     180 deg rotation - cart. axis [0,0,1]        

 cryst.   s( 2) = (    -1          0          0      )
                  (     0         -1          0      )
                  (     0          0          1      )

 cart.    s( 2) = ( -1.0000000  0.0000000  0.0000000 )
                  (  0.0000000 -1.0000000  0.0000000 )
                  (  0.0000000  0.0000000  1.0000000 )


      isym =  3      90 deg rotation - cart. axis [0,0,-1]       

 cryst.   s( 3) = (     0         -1          0      )
                  (     1          0          0      )
                  (     0          0          1      )

 cart.    s( 3) = (  0.0000000  1.0000000  0.0000000 )
                  ( -1.0000000  0.0000000  0.0000000 )
                  (  0.0000000  0.0000000  1.0000000 )


      isym =  4      90 deg rotation - cart. axis [0,0,1]        

 cryst.   s( 4) = (     0          1          0      )
                  (    -1          0          0      )
                  (     0          0          1      )

 cart.    s( 4) = (  0.0000000 -1.0000000  0.0000000 )
                  (  1.0000000  0.0000000  0.0000000 )
                  (  0.0000000  0.0000000  1.0000000 )


      isym =  5     inv. 180 deg rotation - cart. axis [0,1,0]   

 cryst.   s( 5) = (     1          0          0      )
                  (     0         -1          0      )
                  (     0          0          1      )

 cart.    s( 5) = (  1.0000000  0.0000000  0.0000000 )
                  (  0.0000000 -1.0000000  0.0000000 )
                  (  0.0000000  0.0000000  1.0000000 )


      isym =  6     inv. 180 deg rotation - cart. axis [1,0,0]   

 cryst.   s( 6) = (    -1          0          0      )
                  (     0          1          0      )
                  (     0          0          1      )

 cart.    s( 6) = ( -1.0000000  0.0000000  0.0000000 )
                  (  0.0000000  1.0000000  0.0000000 )
                  (  0.0000000  0.0000000  1.0000000 )


      isym =  7     inv. 180 deg rotation - cart. axis [1,1,0]   

 cryst.   s( 7) = (     0         -1          0      )
                  (    -1          0          0      )
                  (     0          0          1      )

 cart.    s( 7) = (  0.0000000 -1.0000000  0.0000000 )
                  ( -1.0000000  0.0000000  0.0000000 )
                  (  0.0000000  0.0000000  1.0000000 )


      isym =  8     inv. 180 deg rotation - cart. axis [1,-1,0]  

 cryst.   s( 8) = (     0          1          0      )
                  (     1          0          0      )
                  (     0          0          1      )

 cart.    s( 8) = (  0.0000000  1.0000000  0.0000000 )
                  (  1.0000000  0.0000000  0.0000000 )
                  (  0.0000000  0.0000000  1.0000000 )


     point group C_4v (4mm) 
     there are  5 classes
     the character table:

       E     2C4   C2    2s_v  2s_d 
A_1    1.00  1.00  1.00  1.00  1.00
A_2    1.00  1.00  1.00 -1.00 -1.00
B_1    1.00 -1.00  1.00  1.00 -1.00
B_2    1.00 -1.00  1.00 -1.00  1.00
E      2.00  0.00 -2.00  0.00  0.00

     the symmetry operations in each class and the name of the first element:

     E        1
          identity                                               
     2C4      3    4
           90 deg rotation - cart. axis [0,0,-1]                 
     C2       2
          180 deg rotation - cart. axis [0,0,1]                  
     2s_v     5    6
          inv. 180 deg rotation - cart. axis [0,1,0]             
     2s_d     7    8
          inv. 180 deg rotation - cart. axis [1,1,0]             

   Cartesian axes

     site n.     atom                  positions (alat units)
         1        O      tau(   1) = (   0.0000000   0.0000000   0.0000000  )
         2        O      tau(   2) = (   0.0000000   0.0000000   0.2645617  )

   Crystallographic axes

     site n.     atom                  positions (cryst. coord.)
         1        O      tau(   1) = (  0.0000000  0.0000000  0.0000000  )
         2        O      tau(   2) = (  0.0000000  0.0000000  0.2645617  )

     number of k points=    18  Gaussian smearing, width (Ry)=  0.0200
                       cart. coord. in units 2pi/alat
        k(    1) = (   0.0833333   0.0833333   0.0833333), wk =   0.0370370
        k(    2) = (   0.0833333   0.0833333   0.2500000), wk =   0.0370370
        k(    3) = (   0.0833333   0.0833333   0.4166667), wk =   0.0370370
        k(    4) = (   0.0833333   0.2500000   0.2500000), wk =   0.0740741
        k(    5) = (   0.0833333   0.2500000   0.4166667), wk =   0.0740741
        k(    6) = (   0.0833333   0.4166667   0.4166667), wk =   0.0740741
        k(    7) = (   0.2500000   0.2500000   0.2500000), wk =   0.0370370
        k(    8) = (   0.2500000   0.2500000   0.4166667), wk =   0.0370370
        k(    9) = (   0.2500000   0.4166667   0.4166667), wk =   0.0740741
        k(   10) = (   0.4166667   0.4166667   0.4166667), wk =   0.0370370
        k(   11) = (   0.2500000  -0.0833333   0.0833333), wk =   0.0740741
        k(   12) = (   0.4166667  -0.0833333   0.0833333), wk =   0.0740741
        k(   13) = (   0.2500000  -0.2500000   0.0833333), wk =   0.0370370
        k(   14) = (   0.4166667  -0.2500000   0.0833333), wk =   0.0740741
        k(   15) = (  -0.0833333   0.4166667   0.2500000), wk =   0.0740741
        k(   16) = (   0.4166667  -0.4166667   0.0833333), wk =   0.0370370
        k(   17) = (   0.4166667  -0.2500000   0.2500000), wk =   0.0740741
        k(   18) = (   0.4166667  -0.4166667   0.2500000), wk =   0.0370370

                       cryst. coord.
        k(    1) = (   0.0833333   0.0833333   0.0833333), wk =   0.0370370
        k(    2) = (   0.0833333   0.0833333   0.2500000), wk =   0.0370370
        k(    3) = (   0.0833333   0.0833333   0.4166667), wk =   0.0370370
        k(    4) = (   0.0833333   0.2500000   0.2500000), wk =   0.0740741
        k(    5) = (   0.0833333   0.2500000   0.4166667), wk =   0.0740741
        k(    6) = (   0.0833333   0.4166667   0.4166667), wk =   0.0740741
        k(    7) = (   0.2500000   0.2500000   0.2500000), wk =   0.0370370
        k(    8) = (   0.2500000   0.2500000   0.4166667), wk =   0.0370370
        k(    9) = (   0.2500000   0.4166667   0.4166667), wk =   0.0740741
        k(   10) = (   0.4166667   0.4166667   0.4166667), wk =   0.0370370
        k(   11) = (   0.2500000  -0.0833333   0.0833333), wk =   0.0740741
        k(   12) = (   0.4166667  -0.0833333   0.0833333), wk =   0.0740741
        k(   13) = (   0.2500000  -0.2500000   0.0833333), wk =   0.0370370
        k(   14) = (   0.4166667  -0.2500000   0.0833333), wk =   0.0740741
        k(   15) = (  -0.0833333   0.4166667   0.2500000), wk =   0.0740741
        k(   16) = (   0.4166667  -0.4166667   0.0833333), wk =   0.0370370
        k(   17) = (   0.4166667  -0.2500000   0.2500000), wk =   0.0740741
        k(   18) = (   0.4166667  -0.4166667   0.2500000), wk =   0.0370370

     Dense  grid:   135043 G-vectors     FFT dimensions: (  64,  64,  64)

     Smooth grid:    47833 G-vectors     FFT dimensions: (  45,  45,  45)

     Dynamical RAM for                 wfc:       0.46 MB

     Dynamical RAM for     wfc (w. buffer):      16.85 MB

     Dynamical RAM for           str. fact:       1.03 MB

     Dynamical RAM for           local pot:       0.00 MB

     Dynamical RAM for          nlocal pot:       0.73 MB

     Dynamical RAM for                qrad:       0.46 MB

     Dynamical RAM for          rho,v,vnew:      12.18 MB

     Dynamical RAM for               rhoin:       4.06 MB

     Dynamical RAM for            rho*nmix:      32.97 MB

     Dynamical RAM for           G-vectors:       4.05 MB

     Dynamical RAM for          h,s,v(r/c):       0.02 MB

     Dynamical RAM for          <psi|beta>:       0.00 MB

     Dynamical RAM for                 psi:       0.91 MB

     Dynamical RAM for                hpsi:       0.91 MB

     Dynamical RAM for                spsi:       0.91 MB

     Dynamical RAM for      wfcinit/wfcrot:       0.91 MB

     Dynamical RAM for           addusdens:      47.39 MB

     Estimated static dynamical RAM per process >      47.42 MB

     Estimated max dynamical RAM per process >     127.78 MB

     Estimated total dynamical RAM >     255.57 MB

     Check: negative core charge=   -0.000001
     Generating pointlists ...
     new r_m :   0.1091 (alat units)  1.0913 (a.u.) for type    1

     Initial potential from superposition of free atoms

     starting charge      12.0000, renormalised to      12.0000

     negative rho (up, down):  1.986E-06 6.621E-07
     Starting wfcs are    8 randomized atomic wfcs +    2 random wfcs
     Checking if some PAW data can be deallocated... 

     total cpu time spent up to now is        1.1 secs

     Self-consistent Calculation

     iteration #  1     ecut=    50.00 Ry     beta= 0.70
     Davidson diagonalization with overlap

---- Real-time Memory Report at c_bands before calling an iterative solver
           102 MiB given to the printing process from OS
             0 MiB allocation reported by mallinfo(arena+hblkhd)
           605 MiB available memory on the node where the printing process lives
------------------
     ethr =  1.00E-02,  avg # of iterations =  8.0

     negative rho (up, down):  2.354E-06 8.264E-07

     total cpu time spent up to now is        3.5 secs

     total energy              =     -82.92074286 Ry
     estimated scf accuracy    <       0.19892506 Ry

     total magnetization       =     2.00 Bohr mag/cell
     absolute magnetization    =     2.04 Bohr mag/cell

     iteration #  2     ecut=    50.00 Ry     beta= 0.70
     Davidson diagonalization with overlap

---- Real-time Memory Report at c_bands before calling an iterative solver
           137 MiB given to the printing process from OS
             0 MiB allocation reported by mallinfo(arena+hblkhd)
           540 MiB available memory on the node where the printing process lives
------------------
     ethr =  1.66E-03,  avg # of iterations =  2.2

     negative rho (up, down):  6.325E-06 1.634E-06

     total cpu time spent up to now is        5.1 secs

     total energy              =     -82.97840092 Ry
     estimated scf accuracy    <       0.02169432 Ry

     total magnetization       =     2.00 Bohr mag/cell
     absolute magnetization    =     2.05 Bohr mag/cell

     iteration #  3     ecut=    50.00 Ry     beta= 0.70
     Davidson diagonalization with overlap

---- Real-time Memory Report at c_bands before calling an iterative solver
           139 MiB given to the printing process from OS
             0 MiB allocation reported by mallinfo(arena+hblkhd)
           556 MiB available memory on the node where the printing process lives
------------------
     ethr =  1.81E-04,  avg # of iterations =  5.8

     negative rho (up, down):  5.872E-06 2.207E-06

     total cpu time spent up to now is        7.3 secs

     total energy              =     -82.98259250 Ry
     estimated scf accuracy    <       0.00509062 Ry

     total magnetization       =     2.00 Bohr mag/cell
     absolute magnetization    =     2.05 Bohr mag/cell

     iteration #  4     ecut=    50.00 Ry     beta= 0.70
     Davidson diagonalization with overlap

---- Real-time Memory Report at c_bands before calling an iterative solver
           140 MiB given to the printing process from OS
             0 MiB allocation reported by mallinfo(arena+hblkhd)
           506 MiB available memory on the node where the printing process lives
------------------
     ethr =  4.24E-05,  avg # of iterations =  5.9

     negative rho (up, down):  6.074E-06 3.604E-06

     total cpu time spent up to now is        9.6 secs

     total energy              =     -82.98240831 Ry
     estimated scf accuracy    <       0.03237477 Ry

     total magnetization       =     2.00 Bohr mag/cell
     absolute magnetization    =     2.05 Bohr mag/cell

     iteration #  5     ecut=    50.00 Ry     beta= 0.70
     Davidson diagonalization with overlap

---- Real-time Memory Report at c_bands before calling an iterative solver
           142 MiB given to the printing process from OS
             0 MiB allocation reported by mallinfo(arena+hblkhd)
           516 MiB available memory on the node where the printing process lives
------------------
     ethr =  4.24E-05,  avg # of iterations =  1.8

     negative rho (up, down):  7.824E-06 4.037E-06

     total cpu time spent up to now is       11.2 secs

     total energy              =     -82.98588419 Ry
     estimated scf accuracy    <       0.00020352 Ry

     total magnetization       =     2.00 Bohr mag/cell
     absolute magnetization    =     2.05 Bohr mag/cell

     iteration #  6     ecut=    50.00 Ry     beta= 0.70
     Davidson diagonalization with overlap

---- Real-time Memory Report at c_bands before calling an iterative solver
           143 MiB given to the printing process from OS
             0 MiB allocation reported by mallinfo(arena+hblkhd)
           495 MiB available memory on the node where the printing process lives
------------------
     c_bands:  1 eigenvalues not converged
     c_bands:  1 eigenvalues not converged
     c_bands:  1 eigenvalues not converged
     c_bands:  1 eigenvalues not converged
     c_bands:  1 eigenvalues not converged
     c_bands:  1 eigenvalues not converged
     ethr =  1.70E-06,  avg # of iterations = 12.2

     negative rho (up, down):  7.727E-06 3.850E-06

     total cpu time spent up to now is       15.0 secs

     total energy              =     -82.98619196 Ry
     estimated scf accuracy    <       0.00040519 Ry

     total magnetization       =     2.00 Bohr mag/cell
     absolute magnetization    =     2.05 Bohr mag/cell

     iteration #  7     ecut=    50.00 Ry     beta= 0.70
     Davidson diagonalization with overlap

---- Real-time Memory Report at c_bands before calling an iterative solver
           145 MiB given to the printing process from OS
             0 MiB allocation reported by mallinfo(arena+hblkhd)
           500 MiB available memory on the node where the printing process lives
------------------
     c_bands:  1 eigenvalues not converged
     ethr =  1.70E-06,  avg # of iterations =  3.1

     negative rho (up, down):  7.757E-06 3.804E-06

     total cpu time spent up to now is       16.6 secs

     total energy              =     -82.98620043 Ry
     estimated scf accuracy    <       0.00006361 Ry

     total magnetization       =     2.00 Bohr mag/cell
     absolute magnetization    =     2.05 Bohr mag/cell

     iteration #  8     ecut=    50.00 Ry     beta= 0.70
     Davidson diagonalization with overlap

---- Real-time Memory Report at c_bands before calling an iterative solver
           146 MiB given to the printing process from OS
             0 MiB allocation reported by mallinfo(arena+hblkhd)
           498 MiB available memory on the node where the printing process lives
------------------
     ethr =  5.30E-07,  avg # of iterations =  2.5

     negative rho (up, down):  7.952E-06 3.956E-06

     total cpu time spent up to now is       18.4 secs

     total energy              =     -82.98622093 Ry
     estimated scf accuracy    <       0.00000061 Ry

     total magnetization       =     2.00 Bohr mag/cell
     absolute magnetization    =     2.05 Bohr mag/cell

     iteration #  9     ecut=    50.00 Ry     beta= 0.70
     Davidson diagonalization with overlap

---- Real-time Memory Report at c_bands before calling an iterative solver
           148 MiB given to the printing process from OS
             0 MiB allocation reported by mallinfo(arena+hblkhd)
           475 MiB available memory on the node where the printing process lives
------------------
     ethr =  5.06E-09,  avg # of iterations =  6.6

     negative rho (up, down):  8.198E-06 4.124E-06

     total cpu time spent up to now is       21.6 secs

     total energy              =     -82.98622508 Ry
     estimated scf accuracy    <       0.00000036 Ry

     total magnetization       =     2.00 Bohr mag/cell
     absolute magnetization    =     2.05 Bohr mag/cell

     iteration # 10     ecut=    50.00 Ry     beta= 0.70
     Davidson diagonalization with overlap

---- Real-time Memory Report at c_bands before calling an iterative solver
           149 MiB given to the printing process from OS
             0 MiB allocation reported by mallinfo(arena+hblkhd)
           513 MiB available memory on the node where the printing process lives
------------------
     ethr =  3.04E-09,  avg # of iterations =  4.8

     negative rho (up, down):  8.132E-06 4.065E-06

     total cpu time spent up to now is       24.2 secs

     total energy              =     -82.98622455 Ry
     estimated scf accuracy    <       0.00000329 Ry

     total magnetization       =     2.00 Bohr mag/cell
     absolute magnetization    =     2.05 Bohr mag/cell

     iteration # 11     ecut=    50.00 Ry     beta= 0.70
     Davidson diagonalization with overlap

---- Real-time Memory Report at c_bands before calling an iterative solver
           149 MiB given to the printing process from OS
             0 MiB allocation reported by mallinfo(arena+hblkhd)
           481 MiB available memory on the node where the printing process lives
------------------
     ethr =  3.04E-09,  avg # of iterations =  4.5

     negative rho (up, down):  8.125E-06 4.053E-06

     total cpu time spent up to now is       26.6 secs

     total energy              =     -82.98622485 Ry
     estimated scf accuracy    <       0.00000019 Ry

     total magnetization       =     2.00 Bohr mag/cell
     absolute magnetization    =     2.05 Bohr mag/cell

     iteration # 12     ecut=    50.00 Ry     beta= 0.70
     Davidson diagonalization with overlap

---- Real-time Memory Report at c_bands before calling an iterative solver
           149 MiB given to the printing process from OS
             0 MiB allocation reported by mallinfo(arena+hblkhd)
           464 MiB available memory on the node where the printing process lives
------------------
     ethr =  1.57E-09,  avg # of iterations =  2.0

     negative rho (up, down):  8.118E-06 4.045E-06

     total cpu time spent up to now is       28.2 secs

     total energy              =     -82.98622487 Ry
     estimated scf accuracy    <       0.00000002 Ry

     total magnetization       =     2.00 Bohr mag/cell
     absolute magnetization    =     2.05 Bohr mag/cell

     iteration # 13     ecut=    50.00 Ry     beta= 0.70
     Davidson diagonalization with overlap

---- Real-time Memory Report at c_bands before calling an iterative solver
           149 MiB given to the printing process from OS
             0 MiB allocation reported by mallinfo(arena+hblkhd)
           461 MiB available memory on the node where the printing process lives
------------------
     ethr =  2.03E-10,  avg # of iterations =  4.3

     negative rho (up, down):  8.120E-06 4.047E-06

     Magnetic moment per site  (integrated on atomic sphere of radius R)
     atom   1 (R=0.109)  charge=  3.5320  magn=  0.6722
     atom   2 (R=0.109)  charge=  3.5321  magn=  0.6723

     total cpu time spent up to now is       30.4 secs

     End of self-consistent calculation

 ------ SPIN UP ------------


          k = 0.0833 0.0833 0.0833 (  5959 PWs)   bands (ev):

   -28.4162 -20.6735 -11.7857 -10.9067 -10.9066  -6.7704  -6.7703  -0.2359
     0.1585   3.9399

     occupation numbers 
     1.0000   1.0000   1.0000   1.0000   1.0000   1.0000   1.0000   0.0000
     0.0000   0.0000

          k = 0.0833 0.0833 0.2500 (  5964 PWs)   bands (ev):

   -28.4154 -20.6818 -11.7437 -10.9028 -10.9028  -6.7813  -6.7813  -0.5903
     0.5625   3.0324

     occupation numbers 
     1.0000   1.0000   1.0000   1.0000   1.0000   1.0000   1.0000   0.0000
     0.0000   0.0000

          k = 0.0833 0.0833 0.4167 (  5969 PWs)   bands (ev):

   -28.4145 -20.6900 -11.7012 -10.8990 -10.8989  -6.7923  -6.7922  -0.8385
     1.0902   2.0767

     occupation numbers 
     1.0000   1.0000   1.0000   1.0000   1.0000   1.0000   1.0000   0.0000
     0.0000   0.0000

          k = 0.0833 0.2500 0.2500 (  5975 PWs)   bands (ev):

   -28.4153 -20.6816 -11.7430 -10.9102 -10.9022  -6.7869  -6.7808  -0.5324
     0.8169   3.2983

     occupation numbers 
     1.0000   1.0000   1.0000   1.0000   1.0000   1.0000   1.0000   0.0000
     0.0000   0.0000

          k = 0.0833 0.2500 0.4167 (  5977 PWs)   bands (ev):

   -28.4145 -20.6898 -11.7007 -10.9061 -10.8983  -6.7987  -6.7917  -0.7876
     1.3792   2.3115

     occupation numbers 
     1.0000   1.0000   1.0000   1.0000   1.0000   1.0000   1.0000   0.0000
     0.0000   0.0000

          k = 0.0833 0.4167 0.4167 (  5983 PWs)   bands (ev):

   -28.4144 -20.6896 -11.7001 -10.9132 -10.8977  -6.8052  -6.7911  -0.7364
     1.9277   2.7353

     occupation numbers 
     1.0000   1.0000   1.0000   1.0000   1.0000   1.0000   1.0000   0.0000
     0.0000   0.0000

          k = 0.2500 0.2500 0.2500 (  5950 PWs)   bands (ev):

   -28.4152 -20.6814 -11.7422 -10.9096 -10.9093  -6.7864  -6.7861  -0.4916
     1.0823   3.2470

     occupation numbers 
     1.0000   1.0000   1.0000   1.0000   1.0000   1.0000   1.0000   0.0000
     0.0000   0.0000

          k = 0.2500 0.2500 0.4167 (  5968 PWs)   bands (ev):

   -28.4144 -20.6896 -11.7001 -10.9055 -10.9052  -6.7982  -6.7978  -0.7463
     1.6630   2.5621

     occupation numbers 
     1.0000   1.0000   1.0000   1.0000   1.0000   1.0000   1.0000   0.0000
     0.0000   0.0000

          k = 0.2500 0.4167 0.4167 (  5968 PWs)   bands (ev):

   -28.4143 -20.6895 -11.6996 -10.9124 -10.9047  -6.8044  -6.7973  -0.7048
     2.2017   3.0520

     occupation numbers 
     1.0000   1.0000   1.0000   1.0000   1.0000   1.0000   1.0000   0.0000
     0.0000   0.0000

          k = 0.4167 0.4167 0.4167 (  5962 PWs)   bands (ev):

   -28.4142 -20.6893 -11.6990 -10.9117 -10.9116  -6.8036  -6.8035  -0.6731
     2.7241   3.3221

     occupation numbers 
     1.0000   1.0000   1.0000   1.0000   1.0000   1.0000   1.0000   0.0000
     0.0000   0.0000

          k = 0.2500-0.0833 0.0833 (  5964 PWs)   bands (ev):

   -28.4161 -20.6734 -11.7848 -10.9143 -10.9060  -6.7750  -6.7699  -0.1902
     0.4234   2.9364

     occupation numbers 
     1.0000   1.0000   1.0000   1.0000   1.0000   1.0000   1.0000   0.0000
     0.0000   0.0000

          k = 0.4167-0.0833 0.0833 (  5969 PWs)   bands (ev):

   -28.4160 -20.6732 -11.7838 -10.9219 -10.9054  -6.7796  -6.7695  -0.1653
     0.9937   1.8705

     occupation numbers 
     1.0000   1.0000   1.0000   1.0000   1.0000   1.0000   1.0000   0.0000
     0.0000   0.0000

          k = 0.2500-0.2500 0.0833 (  5975 PWs)   bands (ev):

   -28.4160 -20.6732 -11.7839 -10.9137 -10.9134  -6.7746  -6.7744  -0.1709
     0.7088   2.9568

     occupation numbers 
     1.0000   1.0000   1.0000   1.0000   1.0000   1.0000   1.0000   0.0000
     0.0000   0.0000

          k = 0.4167-0.2500 0.0833 (  5977 PWs)   bands (ev):

   -28.4159 -20.6731 -11.7830 -10.9211 -10.9128  -6.7791  -6.7741  -0.1569
     1.2775   2.1379

     occupation numbers 
     1.0000   1.0000   1.0000   1.0000   1.0000   1.0000   1.0000   0.0000
     0.0000   0.0000

          k =-0.0833 0.4167 0.2500 (  5977 PWs)   bands (ev):

   -28.4152 -20.6815 -11.7422 -10.9176 -10.9016  -6.7924  -6.7803  -0.4793
     1.3414   2.2130

     occupation numbers 
     1.0000   1.0000   1.0000   1.0000   1.0000   1.0000   1.0000   0.0000
     0.0000   0.0000

          k = 0.4167-0.4167 0.0833 (  5983 PWs)   bands (ev):

   -28.4158 -20.6729 -11.7821 -10.9203 -10.9202  -6.7786  -6.7785  -0.1493
     1.8253   2.4579

     occupation numbers 
     1.0000   1.0000   1.0000   1.0000   1.0000   1.0000   1.0000   0.0000
     0.0000   0.0000

          k = 0.4167-0.2500 0.2500 (  5968 PWs)   bands (ev):

   -28.4151 -20.6813 -11.7415 -10.9167 -10.9087  -6.7917  -6.7857  -0.4534
     1.6122   2.4657

     occupation numbers 
     1.0000   1.0000   1.0000   1.0000   1.0000   1.0000   1.0000   0.0000
     0.0000   0.0000

          k = 0.4167-0.4167 0.2500 (  5968 PWs)   bands (ev):

   -28.4150 -20.6811 -11.7408 -10.9160 -10.9159  -6.7911  -6.7910  -0.4282
     2.1383   2.7483

     occupation numbers 
     1.0000   1.0000   1.0000   1.0000   1.0000   1.0000   1.0000   0.0000
     0.0000   0.0000

 ------ SPIN DOWN ----------


          k = 0.0833 0.0833 0.0833 (  5959 PWs)   bands (ev):

   -27.0868 -18.8696 -11.0097  -9.0253  -9.0251  -4.4981  -4.4980   0.2040
     0.8565   4.1318

     occupation numbers 
     1.0000   1.0000   1.0000   1.0000   1.0000   0.0000   0.0000   0.0000
     0.0000   0.0000

          k = 0.0833 0.0833 0.2500 (  5964 PWs)   bands (ev):

   -27.0859 -18.8808 -10.9605  -9.0197  -9.0196  -4.5166  -4.5164   0.0921
     0.9412   3.2429

     occupation numbers 
     1.0000   1.0000   1.0000   1.0000   1.0000   0.0000   0.0000   0.0000
     0.0000   0.0000

          k = 0.0833 0.0833 0.4167 (  5969 PWs)   bands (ev):

   -27.0850 -18.8919 -10.9108  -9.0142  -9.0140  -4.5351  -4.5348  -0.0889
     1.2773   2.3875

     occupation numbers 
     1.0000   1.0000   1.0000   1.0000   1.0000   0.0000   0.0000   0.0000
     0.0000   0.0000

          k = 0.0833 0.2500 0.2500 (  5975 PWs)   bands (ev):

   -27.0858 -18.8806 -10.9596  -9.0320  -9.0186  -4.5273  -4.5155   0.2391
     1.1238   3.4923

     occupation numbers 
     1.0000   1.0000   1.0000   1.0000   1.0000   0.0000   0.0000   0.0000
     0.0000   0.0000

          k = 0.0833 0.2500 0.4167 (  5977 PWs)   bands (ev):

   -27.0849 -18.8916 -10.9101  -9.0260  -9.0131  -4.5481  -4.5337  -0.0031
     1.5728   2.5909

     occupation numbers 
     1.0000   1.0000   1.0000   1.0000   1.0000   0.0000   0.0000   0.0000
     0.0000   0.0000

          k = 0.0833 0.4167 0.4167 (  5983 PWs)   bands (ev):

   -27.0848 -18.8914 -10.9093  -9.0378  -9.0120  -4.5610  -4.5325   0.0845
     2.1278   2.9425

     occupation numbers 
     1.0000   1.0000   1.0000   1.0000   1.0000   0.0000   0.0000   0.0000
     0.0000   0.0000

          k = 0.2500 0.2500 0.2500 (  5950 PWs)   bands (ev):

   -27.0857 -18.8803 -10.9586  -9.0310  -9.0304  -4.5265  -4.5256   0.3368
     1.3459   3.4854

     occupation numbers 
     1.0000   1.0000   1.0000   1.0000   1.0000   0.0000   0.0000   0.0000
     0.0000   0.0000

          k = 0.2500 0.2500 0.4167 (  5968 PWs)   bands (ev):

   -27.0848 -18.8914 -10.9093  -9.0250  -9.0244  -4.5471  -4.5457   0.0646
     1.8616   2.8216

     occupation numbers 
     1.0000   1.0000   1.0000   1.0000   1.0000   0.0000   0.0000   0.0000
     0.0000   0.0000

          k = 0.2500 0.4167 0.4167 (  5968 PWs)   bands (ev):

   -27.0847 -18.8911 -10.9086  -9.0363  -9.0235  -4.5590  -4.5448   0.1329
     2.4023   3.2518

     occupation numbers 
     1.0000   1.0000   1.0000   1.0000   1.0000   0.0000   0.0000   0.0000
     0.0000   0.0000

          k = 0.4167 0.4167 0.4167 (  5962 PWs)   bands (ev):

   -27.0846 -18.8909 -10.9079  -9.0350  -9.0348  -4.5571  -4.5568   0.1816
     2.9214   3.5843

     occupation numbers 
     1.0000   1.0000   1.0000   1.0000   1.0000   0.0000   0.0000   0.0000
     0.0000   0.0000

          k = 0.2500-0.0833 0.0833 (  5964 PWs)   bands (ev):

   -27.0867 -18.8694 -11.0085  -9.0380  -9.0240  -4.5065  -4.4973   0.4911
     0.8902   3.1548

     occupation numbers 
     1.0000   1.0000   1.0000   1.0000   1.0000   0.0000   0.0000   0.0000
     0.0000   0.0000

          k = 0.4167-0.0833 0.0833 (  5969 PWs)   bands (ev):

   -27.0866 -18.8692 -11.0073  -9.0508  -9.0229  -4.5150  -4.4965   0.7689
     1.2166   2.0909

     occupation numbers 
     1.0000   1.0000   1.0000   1.0000   1.0000   0.0000   0.0000   0.0000
     0.0000   0.0000

          k = 0.2500-0.2500 0.0833 (  5975 PWs)   bands (ev):

   -27.0866 -18.8692 -11.0073  -9.0370  -9.0362  -4.5059  -4.5053   0.6986
     0.9957   3.1927

     occupation numbers 
     1.0000   1.0000   1.0000   1.0000   1.0000   0.0000   0.0000   0.0000
     0.0000   0.0000

          k = 0.4167-0.2500 0.0833 (  5977 PWs)   bands (ev):

   -27.0865 -18.8690 -11.0061  -9.0492  -9.0352  -4.5139  -4.5047   0.7961
     1.4868   2.3651

     occupation numbers 
     1.0000   1.0000   1.0000   1.0000   1.0000   0.0000   0.0000   0.0000
     0.0000   0.0000

          k =-0.0833 0.4167 0.2500 (  5977 PWs)   bands (ev):

   -27.0857 -18.8803 -10.9586  -9.0443  -9.0175  -4.5381  -4.5146   0.3748
     1.5725   2.4505

     occupation numbers 
     1.0000   1.0000   1.0000   1.0000   1.0000   0.0000   0.0000   0.0000
     0.0000   0.0000

          k = 0.4167-0.4167 0.0833 (  5983 PWs)   bands (ev):

   -27.0864 -18.8688 -11.0050  -9.0476  -9.0474  -4.5129  -4.5127   0.8139
     2.0268   2.7130

     occupation numbers 
     1.0000   1.0000   1.0000   1.0000   1.0000   0.0000   0.0000   0.0000
     0.0000   0.0000

          k = 0.4167-0.2500 0.2500 (  5968 PWs)   bands (ev):

   -27.0856 -18.8801 -10.9577  -9.0428  -9.0294  -4.5365  -4.5248   0.4235
     1.8318   2.7071

     occupation numbers 
     1.0000   1.0000   1.0000   1.0000   1.0000   0.0000   0.0000   0.0000
     0.0000   0.0000

          k = 0.4167-0.4167 0.2500 (  5968 PWs)   bands (ev):

   -27.0855 -18.8799 -10.9567  -9.0413  -9.0412  -4.5351  -4.5348   0.4691
     2.3442   3.0078

     occupation numbers 
     1.0000   1.0000   1.0000   1.0000   1.0000   0.0000   0.0000   0.0000
     0.0000   0.0000

     the Fermi energy is    -5.6578 ev

!    total energy              =     -82.98622489 Ry
     total all-electron energy =      -300.680005 Ry
     estimated scf accuracy    <          3.3E-09 Ry
     smearing contrib. (-TS)   =      -0.00000000 Ry
     internal energy E=F+TS    =     -82.98622489 Ry

     The total energy is F=E-TS. E is the sum of the following terms:
     one-electron contribution =     -79.82754748 Ry
     hartree contribution      =      42.77968784 Ry
     xc contribution           =     -14.25966489 Ry
     ewald contribution        =     -12.47515879 Ry
     one-center paw contrib.   =     -19.20354156 Ry
      -> PAW hartree energy AE =      23.10214071 Ry
      -> PAW hartree energy PS =     -23.06940490 Ry
      -> PAW xc energy AE      =     -16.24693975 Ry
      -> PAW xc energy PS      =       6.61243360 Ry
      -> total E_H with PAW    =      42.81242364 Ry
      -> total E_XC with PAW   =     -23.89417104 Ry

     total magnetization       =     2.00 Bohr mag/cell
     absolute magnetization    =     2.05 Bohr mag/cell

     convergence has been achieved in  13 iterations

     Writing all to output data dir ./tmp/o2.save/ :
     XML data file, charge density, pseudopotentials, collected wavefunctions

     init_run     :      1.61s CPU      1.02s WALL (       1 calls)
     electrons    :     55.24s CPU     29.39s WALL (       1 calls)

     Called by init_run:
     wfcinit      :      0.87s CPU      0.44s WALL (       1 calls)
     wfcinit:atom :      0.01s CPU      0.01s WALL (      36 calls)
     wfcinit:wfcr :      0.81s CPU      0.41s WALL (      36 calls)
     potinit      :      0.39s CPU      0.25s WALL (       1 calls)
     hinit0       :      0.23s CPU      0.21s WALL (       1 calls)

     Called by electrons:
     c_bands      :     44.43s CPU     22.78s WALL (      13 calls)
     sum_band     :      5.22s CPU      3.24s WALL (      13 calls)
     v_of_rho     :      3.04s CPU      1.64s WALL (      14 calls)
     v_h          :      0.08s CPU      0.04s WALL (      14 calls)
     v_xc         :      2.97s CPU      1.60s WALL (      14 calls)
     newd         :      0.87s CPU      0.84s WALL (      14 calls)
     PAW_pot      :      1.57s CPU      0.84s WALL (      14 calls)
     mix_rho      :      0.30s CPU      0.18s WALL (      13 calls)

     Called by c_bands:
     init_us_2    :      0.59s CPU      0.30s WALL (     972 calls)
     cegterg      :     43.56s CPU     22.34s WALL (     468 calls)

     Called by sum_band:
     sum_band:wei :      0.00s CPU      0.00s WALL (      13 calls)
     sum_band:loo :      4.22s CPU      2.16s WALL (      13 calls)
     sum_band:buf :      0.05s CPU      0.02s WALL (     468 calls)
     sum_band:ini :      0.28s CPU      0.14s WALL (     468 calls)
     sum_band:cal :      0.68s CPU      0.34s WALL (     468 calls)
     sum_band:bec :      0.00s CPU      0.00s WALL (     468 calls)
     addusdens    :      0.84s CPU      0.98s WALL (      13 calls)
                                        0.00s GPU  (      13 calls)
     addusd:skk   :      0.02s CPU      0.01s WALL (      13 calls)
                                        0.00s GPU  (      13 calls)

     Called by *egterg:
     cdiaghg      :      0.57s CPU      0.28s WALL (    2763 calls)
     cegterg:over :      3.55s CPU      1.78s WALL (    2295 calls)
     cegterg:upda :      2.03s CPU      1.14s WALL (    2295 calls)
     cegterg:last :      5.91s CPU      2.96s WALL (    1401 calls)
     h_psi        :     28.32s CPU     14.58s WALL (    2799 calls)
     s_psi        :      2.43s CPU      1.21s WALL (    2799 calls)
     g_psi        :      0.23s CPU      0.13s WALL (    2295 calls)

     Called by h_psi:
     h_psi:calbec :      2.35s CPU      1.20s WALL (    2799 calls)
     vloc_psi     :     23.50s CPU     12.10s WALL (    2799 calls)
     add_vuspsi   :      2.37s CPU      1.21s WALL (    2799 calls)

     General routines
     calbec       :      3.02s CPU      1.54s WALL (    3267 calls)
     fft          :      1.56s CPU      0.90s WALL (     344 calls)
     ffts         :      0.11s CPU      0.07s WALL (      54 calls)
     fftw         :     23.15s CPU     11.91s WALL (   36126 calls)
     interpolate  :      0.16s CPU      0.10s WALL (      28 calls)

     Parallel routines

     PAW routines
     PAW_pot      :      1.57s CPU      0.84s WALL (      14 calls)
     PAW_symme    :      0.00s CPU      0.00s WALL (      27 calls)

     PWSCF        :     56.96s CPU     30.52s WALL


   This run was terminated on:   7:23:54   2Jul2025            

=------------------------------------------------------------------------------=
   JOB DONE.
=------------------------------------------------------------------------------=
