
     Program PWSCF v.7.4.1 starts on  2Jul2025 at  4: 8:35 

     This program is part of the open-source Quantum ESPRESSO suite
     for quantum simulation of materials; please cite
         "P. Giannozzi et al., J. Phys.:Condens. Matter 21 395502 (2009);
         "P. Giannozzi et al., J. Phys.:Condens. Matter 29 465901 (2017);
         "P. Giannozzi et al., J. Chem. Phys. 152 154105 (2020);
          URL http://www.quantum-espresso.org", 
     in publications or presentations arising from this work. More details at
     http://www.quantum-espresso.org/quote

     Parallel version (MPI & OpenMP), running on      48 processor cores
     Number of MPI processes:                 4
     Threads/MPI process:                    12

     MPI processes distributed on     1 nodes
     9922 MiB available memory on the printing compute node when the environment starts

     Reading input from H2_1.3.in

     Current dimensions of program PWSCF are:
     Max number of different atomic species (ntypx) = 10
     Max number of k-points (npk) =  40000
     Max angular momentum in pseudopotentials (lmaxx) =  4
     file H.pbe-kjpaw_psl.1.0.0.UPF: wavefunction(s)  1S renormalized

     R & G space division:  proc/nbgrp/npool/nimage =       4
     Subspace diagonalization in iterative solution of the eigenvalue problem:
     a serial algorithm will be used


     Parallelization info
     --------------------
     sticks:   dense  smooth     PW     G-vecs:    dense   smooth      PW
     Min         640     320     80                24242     8566    1084
     Max         641     321     82                24243     8567    1085
     Sum        2561    1281    325                96969    34265    4337

     Using Slab Decomposition



     bravais-lattice index     =            1
     lattice parameter (alat)  =      10.0000  a.u.
     unit-cell volume          =    1000.0000 (a.u.)^3
     number of atoms/cell      =            2
     number of atomic types    =            1
     number of electrons       =         2.00
     number of Kohn-Sham states=            1
     kinetic-energy cutoff     =      40.0000  Ry
     charge density cutoff     =     320.0000  Ry
     scf convergence threshold =      1.0E-08
     mixing beta               =       0.7000
     number of iterations used =            8  plain     mixing
     Exchange-correlation= SLA  PW   PBX  PBC
                           (   1   4   3   4   0   0   0)

     celldm(1)=  10.000000  celldm(2)=   0.000000  celldm(3)=   0.000000
     celldm(4)=   0.000000  celldm(5)=   0.000000  celldm(6)=   0.000000

     crystal axes: (cart. coord. in units of alat)
               a(1) = (   1.000000   0.000000   0.000000 )  
               a(2) = (   0.000000   1.000000   0.000000 )  
               a(3) = (   0.000000   0.000000   1.000000 )  

     reciprocal axes: (cart. coord. in units 2 pi/alat)
               b(1) = (  1.000000  0.000000  0.000000 )  
               b(2) = (  0.000000  1.000000  0.000000 )  
               b(3) = (  0.000000  0.000000  1.000000 )  


     PseudoPot. # 1 for H  read from file:
     ./H.pbe-kjpaw_psl.1.0.0.UPF
     MD5 check sum: d81a744832360e4a8af0b0b5b123bc2a
     Pseudo is Projector augmented-wave, Zval =  1.0
     Generated using &quot;atomic&quot; code by A. Dal Corso  v.6.3MaX
     Shape of augmentation charge: PSQ
     Using radial grid of  929 points,  2 beta functions with: 
                l(1) =   0
                l(2) =   0
     Q(r) pseudized with 0 coefficients 


     atomic species   valence    mass     pseudopotential
     H                 1.00     1.00794     H ( 1.00)

      8 Sym. Ops. (no inversion) found


                                    s                        frac. trans.

      isym =  1     identity                                     

 cryst.   s( 1) = (     1          0          0      )
                  (     0          1          0      )
                  (     0          0          1      )

 cart.    s( 1) = (  1.0000000  0.0000000  0.0000000 )
                  (  0.0000000  1.0000000  0.0000000 )
                  (  0.0000000  0.0000000  1.0000000 )


      isym =  2     180 deg rotation - cart. axis [0,0,1]        

 cryst.   s( 2) = (    -1          0          0      )
                  (     0         -1          0      )
                  (     0          0          1      )

 cart.    s( 2) = ( -1.0000000  0.0000000  0.0000000 )
                  (  0.0000000 -1.0000000  0.0000000 )
                  (  0.0000000  0.0000000  1.0000000 )


      isym =  3      90 deg rotation - cart. axis [0,0,-1]       

 cryst.   s( 3) = (     0         -1          0      )
                  (     1          0          0      )
                  (     0          0          1      )

 cart.    s( 3) = (  0.0000000  1.0000000  0.0000000 )
                  ( -1.0000000  0.0000000  0.0000000 )
                  (  0.0000000  0.0000000  1.0000000 )


      isym =  4      90 deg rotation - cart. axis [0,0,1]        

 cryst.   s( 4) = (     0          1          0      )
                  (    -1          0          0      )
                  (     0          0          1      )

 cart.    s( 4) = (  0.0000000 -1.0000000  0.0000000 )
                  (  1.0000000  0.0000000  0.0000000 )
                  (  0.0000000  0.0000000  1.0000000 )


      isym =  5     inv. 180 deg rotation - cart. axis [0,1,0]   

 cryst.   s( 5) = (     1          0          0      )
                  (     0         -1          0      )
                  (     0          0          1      )

 cart.    s( 5) = (  1.0000000  0.0000000  0.0000000 )
                  (  0.0000000 -1.0000000  0.0000000 )
                  (  0.0000000  0.0000000  1.0000000 )


      isym =  6     inv. 180 deg rotation - cart. axis [1,0,0]   

 cryst.   s( 6) = (    -1          0          0      )
                  (     0          1          0      )
                  (     0          0          1      )

 cart.    s( 6) = ( -1.0000000  0.0000000  0.0000000 )
                  (  0.0000000  1.0000000  0.0000000 )
                  (  0.0000000  0.0000000  1.0000000 )


      isym =  7     inv. 180 deg rotation - cart. axis [1,1,0]   

 cryst.   s( 7) = (     0         -1          0      )
                  (    -1          0          0      )
                  (     0          0          1      )

 cart.    s( 7) = (  0.0000000 -1.0000000  0.0000000 )
                  ( -1.0000000  0.0000000  0.0000000 )
                  (  0.0000000  0.0000000  1.0000000 )


      isym =  8     inv. 180 deg rotation - cart. axis [1,-1,0]  

 cryst.   s( 8) = (     0          1          0      )
                  (     1          0          0      )
                  (     0          0          1      )

 cart.    s( 8) = (  0.0000000  1.0000000  0.0000000 )
                  (  1.0000000  0.0000000  0.0000000 )
                  (  0.0000000  0.0000000  1.0000000 )


     point group C_4v (4mm) 
     there are  5 classes
     the character table:

       E     2C4   C2    2s_v  2s_d 
A_1    1.00  1.00  1.00  1.00  1.00
A_2    1.00  1.00  1.00 -1.00 -1.00
B_1    1.00 -1.00  1.00  1.00 -1.00
B_2    1.00 -1.00  1.00 -1.00  1.00
E      2.00  0.00 -2.00  0.00  0.00

     the symmetry operations in each class and the name of the first element:

     E        1
          identity                                               
     2C4      3    4
           90 deg rotation - cart. axis [0,0,-1]                 
     C2       2
          180 deg rotation - cart. axis [0,0,1]                  
     2s_v     5    6
          inv. 180 deg rotation - cart. axis [0,1,0]             
     2s_d     7    8
          inv. 180 deg rotation - cart. axis [1,1,0]             

   Cartesian axes

     site n.     atom                  positions (alat units)
         1        H      tau(   1) = (   0.0000000   0.0000000   0.0000000  )
         2        H      tau(   2) = (   0.0000000   0.0000000   0.2456644  )

   Crystallographic axes

     site n.     atom                  positions (cryst. coord.)
         1        H      tau(   1) = (  0.0000000  0.0000000  0.0000000  )
         2        H      tau(   2) = (  0.0000000  0.0000000  0.2456644  )

     number of k points=     1
                       cart. coord. in units 2pi/alat
        k(    1) = (   0.0000000   0.0000000   0.0000000), wk =   2.0000000

                       cryst. coord.
        k(    1) = (   0.0000000   0.0000000   0.0000000), wk =   2.0000000

     Dense  grid:    96969 G-vectors     FFT dimensions: (  60,  60,  60)

     Smooth grid:    34265 G-vectors     FFT dimensions: (  45,  45,  45)

     Dynamical RAM for                 wfc:       0.02 MB

     Dynamical RAM for     wfc (w. buffer):       0.02 MB

     Dynamical RAM for           str. fact:       0.37 MB

     Dynamical RAM for           local pot:       0.00 MB

     Dynamical RAM for          nlocal pot:       0.07 MB

     Dynamical RAM for                qrad:       0.04 MB

     Dynamical RAM for          rho,v,vnew:       2.35 MB

     Dynamical RAM for               rhoin:       0.78 MB

     Dynamical RAM for            rho*nmix:       5.92 MB

     Dynamical RAM for           G-vectors:       1.45 MB

     Dynamical RAM for          h,s,v(r/c):       0.00 MB

     Dynamical RAM for          <psi|beta>:       0.00 MB

     Dynamical RAM for                 psi:       0.03 MB

     Dynamical RAM for                hpsi:       0.03 MB

     Dynamical RAM for                spsi:       0.03 MB

     Dynamical RAM for      wfcinit/wfcrot:       0.03 MB

     Dynamical RAM for           addusdens:       2.96 MB

     Estimated static dynamical RAM per process >       7.87 MB

     Estimated max dynamical RAM per process >      16.75 MB

     Estimated total dynamical RAM >      67.00 MB

     Initial potential from superposition of free atoms

     starting charge       2.0000, renormalised to       2.0000
     Starting wfcs are    2 randomized atomic wfcs
     Checking if some PAW data can be deallocated... 

     total cpu time spent up to now is       32.3 secs

     Self-consistent Calculation

     iteration #  1     ecut=    40.00 Ry     beta= 0.70
     Davidson diagonalization with overlap

---- Real-time Memory Report at c_bands before calling an iterative solver
            45 MiB given to the printing process from OS
             0 MiB allocation reported by mallinfo(arena+hblkhd)
          9845 MiB available memory on the node where the printing process lives
------------------
     ethr =  1.00E-02,  avg # of iterations =  2.0

     total cpu time spent up to now is       35.4 secs

     total energy              =      -2.19317095 Ry
     estimated scf accuracy    <       0.02115367 Ry

     iteration #  2     ecut=    40.00 Ry     beta= 0.70
     Davidson diagonalization with overlap

---- Real-time Memory Report at c_bands before calling an iterative solver
            49 MiB given to the printing process from OS
             0 MiB allocation reported by mallinfo(arena+hblkhd)
          9835 MiB available memory on the node where the printing process lives
------------------
     ethr =  1.06E-03,  avg # of iterations =  1.0

     total cpu time spent up to now is       38.1 secs

     total energy              =      -2.19360455 Ry
     estimated scf accuracy    <       0.00082731 Ry

     iteration #  3     ecut=    40.00 Ry     beta= 0.70
     Davidson diagonalization with overlap

---- Real-time Memory Report at c_bands before calling an iterative solver
            49 MiB given to the printing process from OS
             0 MiB allocation reported by mallinfo(arena+hblkhd)
          9834 MiB available memory on the node where the printing process lives
------------------
     ethr =  4.14E-05,  avg # of iterations =  2.0

     total cpu time spent up to now is       41.1 secs

     total energy              =      -2.19377987 Ry
     estimated scf accuracy    <       0.00003936 Ry

     iteration #  4     ecut=    40.00 Ry     beta= 0.70
     Davidson diagonalization with overlap

---- Real-time Memory Report at c_bands before calling an iterative solver
            50 MiB given to the printing process from OS
             0 MiB allocation reported by mallinfo(arena+hblkhd)
          9843 MiB available memory on the node where the printing process lives
------------------
     ethr =  1.97E-06,  avg # of iterations =  2.0

     total cpu time spent up to now is       44.1 secs

     total energy              =      -2.19377536 Ry
     estimated scf accuracy    <       0.00002181 Ry

     iteration #  5     ecut=    40.00 Ry     beta= 0.70
     Davidson diagonalization with overlap

---- Real-time Memory Report at c_bands before calling an iterative solver
            50 MiB given to the printing process from OS
             0 MiB allocation reported by mallinfo(arena+hblkhd)
          9824 MiB available memory on the node where the printing process lives
------------------
     ethr =  1.09E-06,  avg # of iterations =  1.0

     total cpu time spent up to now is       46.8 secs

     total energy              =      -2.19377748 Ry
     estimated scf accuracy    <       0.00000011 Ry

     iteration #  6     ecut=    40.00 Ry     beta= 0.70
     Davidson diagonalization with overlap

---- Real-time Memory Report at c_bands before calling an iterative solver
            50 MiB given to the printing process from OS
             0 MiB allocation reported by mallinfo(arena+hblkhd)
          9834 MiB available memory on the node where the printing process lives
------------------
     ethr =  5.47E-09,  avg # of iterations =  2.0

     total cpu time spent up to now is       49.7 secs

     End of self-consistent calculation

          k = 0.0000 0.0000 0.0000 (  4337 PWs)   bands (ev):

    -8.4924

     occupation numbers 
     1.0000

     highest occupied level (ev):    -8.4924

!    total energy              =      -2.19377764 Ry
     total all-electron energy =        -2.193769 Ry
     estimated scf accuracy    <          7.5E-09 Ry

     The total energy is the sum of the following terms:
     one-electron contribution =      -1.75190946 Ry
     hartree contribution      =       0.96712477 Ry
     xc contribution           =      -1.11549887 Ry
     ewald contribution        =      -0.29322222 Ry
     one-center paw contrib.   =      -0.00027186 Ry
      -> PAW hartree energy AE =       0.24173261 Ry
      -> PAW hartree energy PS =      -0.24164400 Ry
      -> PAW xc energy AE      =      -0.33762815 Ry
      -> PAW xc energy PS      =       0.33740361 Ry
      -> total E_H with PAW    =       0.96721338 Ry
      -> total E_XC with PAW   =      -1.11572341 Ry

     convergence has been achieved in   6 iterations

     Writing all to output data dir ./h2.save/ :
     XML data file, charge density, pseudopotentials, collected wavefunctions

     init_run     :     65.45s CPU     31.99s WALL (       1 calls)
     electrons    :     52.00s CPU     17.46s WALL (       1 calls)

     Called by init_run:
     wfcinit      :      1.48s CPU      0.49s WALL (       1 calls)
     wfcinit:atom :      0.00s CPU      0.00s WALL (       1 calls)
     wfcinit:wfcr :      1.48s CPU      0.49s WALL (       1 calls)
     potinit      :      6.95s CPU      4.24s WALL (       1 calls)
     hinit0       :     49.54s CPU     14.74s WALL (       1 calls)

     Called by electrons:
     c_bands      :     15.19s CPU      5.10s WALL (       6 calls)
     sum_band     :      4.15s CPU      1.41s WALL (       6 calls)
     v_of_rho     :     12.99s CPU      4.35s WALL (       7 calls)
     v_h          :      2.31s CPU      0.76s WALL (       7 calls)
     v_xc         :     10.66s CPU      3.58s WALL (       7 calls)
     newd         :      9.71s CPU     13.23s WALL (       7 calls)
     PAW_pot      :     17.27s CPU      5.79s WALL (       7 calls)
     mix_rho      :      2.56s CPU      0.85s WALL (       6 calls)

     Called by c_bands:
     init_us_2    :      0.00s CPU      0.00s WALL (      13 calls)
     cegterg      :     14.86s CPU      4.97s WALL (       6 calls)

     Called by sum_band:
     sum_band:wei :      0.00s CPU      0.00s WALL (       6 calls)
     sum_band:loo :      1.56s CPU      0.54s WALL (       6 calls)
     sum_band:buf :      0.00s CPU      0.00s WALL (       6 calls)
     sum_band:ini :      0.00s CPU      0.00s WALL (       6 calls)
     sum_band:cal :      0.25s CPU      0.09s WALL (       6 calls)
     sum_band:bec :      0.00s CPU      0.00s WALL (       6 calls)
     addusdens    :      0.02s CPU      0.01s WALL (       6 calls)
                                        0.00s GPU  (       6 calls)
     addusd:skk   :      0.01s CPU      0.00s WALL (       6 calls)
                                        0.00s GPU  (       6 calls)

     Called by *egterg:
     cdiaghg      :      0.00s CPU      0.00s WALL (      16 calls)
     cegterg:over :      0.41s CPU      0.13s WALL (      10 calls)
     cegterg:upda :      0.52s CPU      0.18s WALL (      10 calls)
     cegterg:last :      0.00s CPU      0.00s WALL (      10 calls)
     h_psi        :     12.36s CPU      4.14s WALL (      17 calls)
     s_psi        :      0.00s CPU      0.00s WALL (      17 calls)
     g_psi        :      0.88s CPU      0.29s WALL (      10 calls)

     Called by h_psi:
     h_psi:calbec :      0.85s CPU      0.30s WALL (      17 calls)
     vloc_psi     :     10.29s CPU      3.43s WALL (      17 calls)
     add_vuspsi   :      0.00s CPU      0.00s WALL (      17 calls)

     General routines
     calbec       :      1.10s CPU      0.39s WALL (      23 calls)
     fft          :     70.76s CPU     31.80s WALL (      88 calls)
     ffts         :      2.24s CPU      0.88s WALL (      13 calls)
     fftw         :      7.13s CPU      2.37s WALL (      42 calls)
     interpolate  :      2.47s CPU      0.96s WALL (       7 calls)

     Parallel routines

     PAW routines
     PAW_pot      :     17.27s CPU      5.79s WALL (       7 calls)
     PAW_symme    :      0.19s CPU      0.07s WALL (      13 calls)

     PWSCF        :   1m58.46s CPU     49.81s WALL


   This run was terminated on:   4: 9:25   2Jul2025            

=------------------------------------------------------------------------------=
   JOB DONE.
=------------------------------------------------------------------------------=
