
     Program PWSCF v.7.4.1 starts on  5Jul2025 at  1:59:54 

     This program is part of the open-source Quantum ESPRESSO suite
     for quantum simulation of materials; please cite
         "P. Giannozzi et al., J. Phys.:Condens. Matter 21 395502 (2009);
         "P. Giannozzi et al., J. Phys.:Condens. Matter 29 465901 (2017);
         "P. Giannozzi et al., J. Chem. Phys. 152 154105 (2020);
          URL http://www.quantum-espresso.org", 
     in publications or presentations arising from this work. More details at
     http://www.quantum-espresso.org/quote

     Parallel version (MPI), running on     1 processors

     MPI processes distributed on     1 nodes
     8332 MiB available memory on the printing compute node when the environment starts

     Waiting for input...
     Reading input from standard input

     Current dimensions of program PWSCF are:
     Max number of different atomic species (ntypx) = 10
     Max number of k-points (npk) =  40000
     Max angular momentum in pseudopotentials (lmaxx) =  4
     file C.pbe-n-kjpaw_psl.1.0.0.UPF: wavefunction(s)  2S 2P renormalized
     file H.pbe-kjpaw_psl.1.0.0.UPF: wavefunction(s)  1S renormalized

     gamma-point specific algorithms are used
     Message from routine setup:
     using ibrav=0 with symmetry is DISCOURAGED, use correct ibrav instead

     Subspace diagonalization in iterative solution of the eigenvalue problem:
     a serial algorithm will be used


     G-vector sticks info
     --------------------
     sticks:   dense  smooth     PW     G-vecs:    dense   smooth      PW
     Sum        9085    4537   1129               652671   230389   28671

     Using Slab Decomposition



     bravais-lattice index     =            0
     lattice parameter (alat)  =      18.8973  a.u.
     unit-cell volume          =    6748.3345 (a.u.)^3
     number of atoms/cell      =            5
     number of atomic types    =            2
     number of electrons       =         8.00
     number of Kohn-Sham states=            8
     kinetic-energy cutoff     =      40.0000  Ry
     charge density cutoff     =     320.0000  Ry
     scf convergence threshold =      1.0E-08
     mixing beta               =       0.7000
     number of iterations used =            8  plain     mixing
     Exchange-correlation= SLA  PW   PBX  PBC
                           (   1   4   3   4   0   0   0)

     celldm(1)=  18.897261  celldm(2)=   0.000000  celldm(3)=   0.000000
     celldm(4)=   0.000000  celldm(5)=   0.000000  celldm(6)=   0.000000

     crystal axes: (cart. coord. in units of alat)
               a(1) = (   1.000000   0.000000   0.000000 )  
               a(2) = (   0.000000   1.000000   0.000000 )  
               a(3) = (   0.000000   0.000000   1.000000 )  

     reciprocal axes: (cart. coord. in units 2 pi/alat)
               b(1) = (  1.000000  0.000000  0.000000 )  
               b(2) = (  0.000000  1.000000  0.000000 )  
               b(3) = (  0.000000  0.000000  1.000000 )  


     PseudoPot. # 1 for C  read from file:
     ./C.pbe-n-kjpaw_psl.1.0.0.UPF
     MD5 check sum: 5f16ad9a65e90284d1d834d4ab3b0f7d
     Pseudo is Projector augmented-wave + core cor, Zval =  4.0
     Generated using &quot;atomic&quot; code by A. Dal Corso  v.6.3
     Shape of augmentation charge: PSQ
     Using radial grid of 1073 points,  4 beta functions with: 
                l(1) =   0
                l(2) =   0
                l(3) =   1
                l(4) =   1
     Q(r) pseudized with 0 coefficients 


     PseudoPot. # 2 for H  read from file:
     ./H.pbe-kjpaw_psl.1.0.0.UPF
     MD5 check sum: d81a744832360e4a8af0b0b5b123bc2a
     Pseudo is Projector augmented-wave, Zval =  1.0
     Generated using &quot;atomic&quot; code by A. Dal Corso  v.6.3MaX
     Shape of augmentation charge: PSQ
     Using radial grid of  929 points,  2 beta functions with: 
                l(1) =   0
                l(2) =   0
     Q(r) pseudized with 0 coefficients 


     atomic species   valence    mass     pseudopotential
     C                 4.00    12.01070     C ( 1.00)
     H                 1.00     1.00794     H ( 1.00)

     24 Sym. Ops. (no inversion) found



   Cartesian axes

     site n.     atom                  positions (alat units)
         1        C      tau(   1) = (   0.0000000   0.0000000   0.0000000  )
         2        H      tau(   2) = (   0.0629118   0.0629118   0.0629118  )
         3        H      tau(   3) = (  -0.0629118  -0.0629118   0.0629118  )
         4        H      tau(   4) = (  -0.0629118   0.0629118  -0.0629118  )
         5        H      tau(   5) = (   0.0629118  -0.0629118  -0.0629118  )

     number of k points=     1  Gaussian smearing, width (Ry)=  0.0100
                       cart. coord. in units 2pi/alat
        k(    1) = (   0.0000000   0.0000000   0.0000000), wk =   2.0000000

     Dense  grid:   326336 G-vectors     FFT dimensions: ( 108, 108, 108)

     Smooth grid:   115195 G-vectors     FFT dimensions: (  80,  80,  80)

     Estimated max dynamical RAM per process >     470.67 MB

     Initial potential from superposition of free atoms

     starting charge       7.9999, renormalised to       8.0000

     negative rho (up, down):  7.204E-05 0.000E+00
     Starting wfcs are    8 randomized atomic wfcs
     Checking if some PAW data can be deallocated... 

     total cpu time spent up to now is        2.2 secs

     Self-consistent Calculation

     iteration #  1     ecut=    40.00 Ry     beta= 0.70
     Davidson diagonalization with overlap
     ethr =  1.00E-02,  avg # of iterations =  5.0

     negative rho (up, down):  4.390E-04 0.000E+00

     total cpu time spent up to now is        3.4 secs

     total energy              =     -22.98191702 Ry
     estimated scf accuracy    <       0.69660030 Ry

     iteration #  2     ecut=    40.00 Ry     beta= 0.70
     Davidson diagonalization with overlap
     ethr =  8.71E-03,  avg # of iterations =  2.0

     negative rho (up, down):  5.029E-04 0.000E+00

     total cpu time spent up to now is        4.5 secs

     total energy              =     -23.14823606 Ry
     estimated scf accuracy    <       0.27902211 Ry

     iteration #  3     ecut=    40.00 Ry     beta= 0.70
     Davidson diagonalization with overlap
     ethr =  3.49E-03,  avg # of iterations =  2.0

     negative rho (up, down):  5.964E-04 0.000E+00

     total cpu time spent up to now is        5.6 secs

     total energy              =     -23.20102734 Ry
     estimated scf accuracy    <       0.00402728 Ry

     iteration #  4     ecut=    40.00 Ry     beta= 0.70
     Davidson diagonalization with overlap
     ethr =  5.03E-05,  avg # of iterations =  9.0

     negative rho (up, down):  5.801E-04 0.000E+00

     total cpu time spent up to now is        6.9 secs

     total energy              =     -23.20167048 Ry
     estimated scf accuracy    <       0.00041876 Ry

     iteration #  5     ecut=    40.00 Ry     beta= 0.70
     Davidson diagonalization with overlap
     ethr =  5.23E-06,  avg # of iterations =  4.0

     negative rho (up, down):  5.898E-04 0.000E+00

     total cpu time spent up to now is        8.0 secs

     total energy              =     -23.20168609 Ry
     estimated scf accuracy    <       0.00001615 Ry

     iteration #  6     ecut=    40.00 Ry     beta= 0.70
     Davidson diagonalization with overlap
     ethr =  2.02E-07,  avg # of iterations =  3.0

     negative rho (up, down):  5.921E-04 0.000E+00

     total cpu time spent up to now is        9.1 secs

     total energy              =     -23.20169450 Ry
     estimated scf accuracy    <       0.00002367 Ry

     iteration #  7     ecut=    40.00 Ry     beta= 0.70
     Davidson diagonalization with overlap
     ethr =  2.02E-07,  avg # of iterations =  2.0

     negative rho (up, down):  5.933E-04 0.000E+00

     total cpu time spent up to now is       10.2 secs

     total energy              =     -23.20169675 Ry
     estimated scf accuracy    <       0.00000104 Ry

     iteration #  8     ecut=    40.00 Ry     beta= 0.70
     Davidson diagonalization with overlap
     ethr =  1.30E-08,  avg # of iterations =  2.0

     negative rho (up, down):  5.940E-04 0.000E+00

     total cpu time spent up to now is       11.3 secs

     End of self-consistent calculation

          k = 0.0000 0.0000 0.0000 ( 14336 PWs)   bands (ev):

   -16.9019  -9.2843  -9.2843  -9.2843  -0.5952   0.8573   0.9712   0.9713

     the Fermi energy is    -7.9653 ev

!    total energy              =     -23.20169701 Ry
     total all-electron energy =       -80.965777 Ry
     estimated scf accuracy    <          3.6E-09 Ry
     smearing contrib. (-TS)   =      -0.00000000 Ry
     internal energy E=F+TS    =     -23.20169701 Ry

     The total energy is F=E-TS. E is the sum of the following terms:
     one-electron contribution =     -40.15558913 Ry
     hartree contribution      =      21.03015643 Ry
     xc contribution           =      -7.49478531 Ry
     ewald contribution        =       9.58296970 Ry
     one-center paw contrib.   =      -6.16444870 Ry

     convergence has been achieved in   8 iterations

     Writing all to output data dir ./ch4.save/ :
     XML data file, charge density, pseudopotentials, collected wavefunctions

     init_run     :      1.79s CPU      2.11s WALL (       1 calls)
     electrons    :      6.92s CPU      9.14s WALL (       1 calls)

     Called by init_run:
     wfcinit      :      0.29s CPU      0.31s WALL (       1 calls)
     potinit      :      0.72s CPU      0.86s WALL (       1 calls)
     hinit0       :      0.57s CPU      0.62s WALL (       1 calls)

     Called by electrons:
     c_bands      :      1.33s CPU      1.34s WALL (       8 calls)
     sum_band     :      1.56s CPU      2.37s WALL (       8 calls)
     v_of_rho     :      2.47s CPU      3.20s WALL (       9 calls)
     newd         :      1.25s CPU      2.13s WALL (       9 calls)
     PAW_pot      :      0.22s CPU      0.22s WALL (       9 calls)
     mix_rho      :      0.31s CPU      0.31s WALL (       8 calls)

     Called by c_bands:
     init_us_2    :      0.03s CPU      0.03s WALL (      17 calls)
     regterg      :      1.30s CPU      1.31s WALL (       8 calls)

     Called by *egterg:
     rdiaghg      :      0.00s CPU      0.00s WALL (      37 calls)
     h_psi        :      1.27s CPU      1.28s WALL (      38 calls)
     s_psi        :      0.05s CPU      0.05s WALL (      38 calls)
     g_psi        :      0.01s CPU      0.01s WALL (      29 calls)

     Called by h_psi:
     h_psi:calbec :      0.07s CPU      0.07s WALL (      38 calls)
     vloc_psi     :      1.14s CPU      1.16s WALL (      38 calls)
     add_vuspsi   :      0.05s CPU      0.05s WALL (      38 calls)

     General routines
     calbec       :      0.10s CPU      0.10s WALL (      46 calls)
     fft          :      1.52s CPU      1.53s WALL (      97 calls)
     ffts         :      0.39s CPU      0.39s WALL (      17 calls)
     fftw         :      1.01s CPU      1.01s WALL (     256 calls)
     interpolate  :      0.51s CPU      0.51s WALL (       9 calls)

     Parallel routines

     PWSCF        :      8.77s CPU     11.34s WALL


   This run was terminated on:   2: 0: 5   5Jul2025            

=------------------------------------------------------------------------------=
   JOB DONE.
=------------------------------------------------------------------------------=
