
     Program PWSCF v.7.4.1 starts on  7Jul2025 at  6:36:41 

     This program is part of the open-source Quantum ESPRESSO suite
     for quantum simulation of materials; please cite
         "P. Giannozzi et al., J. Phys.:Condens. Matter 21 395502 (2009);
         "P. Giannozzi et al., J. Phys.:Condens. Matter 29 465901 (2017);
         "P. Giannozzi et al., J. Chem. Phys. 152 154105 (2020);
          URL http://www.quantum-espresso.org", 
     in publications or presentations arising from this work. More details at
     http://www.quantum-espresso.org/quote

     Parallel version (MPI), running on     6 processors

     MPI processes distributed on     1 nodes
     10379 MiB available memory on the printing compute node when the environment starts

     Waiting for input...
     Reading input from standard input

     Current dimensions of program PWSCF are:
     Max number of different atomic species (ntypx) = 10
     Max number of k-points (npk) =  40000
     Max angular momentum in pseudopotentials (lmaxx) =  4
     file Si.pbe-n-kjpaw_psl.1.0.0.UPF: wavefunction(s)  3S 3P renormalized

     Atomic positions and unit cell read from directory:
     ./out/silicon.save/
     Atomic positions from file used, from input discarded


     R & G space division:  proc/nbgrp/npool/nimage =       6
     Subspace diagonalization in iterative solution of the eigenvalue problem:
     a serial algorithm will be used


     Parallelization info
     --------------------
     sticks:   dense  smooth     PW     G-vecs:    dense   smooth      PW
     Min         247     124     37                 6217     2220     371
     Max         248     125     38                 6220     2222     373
     Sum        1483     745    223                37309    13323    2229

     Using Slab Decomposition



     bravais-lattice index     =            2
     lattice parameter (alat)  =      10.2600  a.u.
     unit-cell volume          =     275.9662 (a.u.)^3
     number of atoms/cell      =            2
     number of atomic types    =            1
     number of electrons       =         8.00
     number of Kohn-Sham states=            8
     kinetic-energy cutoff     =      50.0000  Ry
     charge density cutoff     =     400.0000  Ry
     Exchange-correlation= SLA  PW   PBX  PBC
                           (   1   4   3   4   0   0   0)

     celldm(1)=  10.260000  celldm(2)=   0.000000  celldm(3)=   0.000000
     celldm(4)=   0.000000  celldm(5)=   0.000000  celldm(6)=   0.000000

     crystal axes: (cart. coord. in units of alat)
               a(1) = (  -0.503649   0.000000   0.503649 )  
               a(2) = (  -0.000000   0.503649   0.503649 )  
               a(3) = (  -0.503649   0.503649   0.000000 )  

     reciprocal axes: (cart. coord. in units 2 pi/alat)
               b(1) = ( -0.992755 -0.992755  0.992755 )  
               b(2) = (  0.992755  0.992755  0.992755 )  
               b(3) = ( -0.992755  0.992755 -0.992755 )  


     PseudoPot. # 1 for Si read from file:
     ./Si.pbe-n-kjpaw_psl.1.0.0.UPF
     MD5 check sum: c39c59da582df4a0d9f10159256ea34e
     Pseudo is Projector augmented-wave + core cor, Zval =  4.0
     Generated using &quot;atomic&quot; code by A. Dal Corso  v.6.3
     Shape of augmentation charge: PSQ
     Using radial grid of 1141 points,  6 beta functions with: 
                l(1) =   0
                l(2) =   0
                l(3) =   1
                l(4) =   1
                l(5) =   2
                l(6) =   2
     Q(r) pseudized with 0 coefficients 


     atomic species   valence    mass     pseudopotential
     Si                4.00    28.08550     Si( 1.00)

     48 Sym. Ops., with inversion, found (24 have fractional translation)



   Cartesian axes

     site n.     atom                  positions (alat units)
         1        Si     tau(   1) = (  -0.0000000  -0.0000000  -0.0000000  )
         2        Si     tau(   2) = (  -0.2518245   0.2518245   0.2518245  )

     number of k points=    72  Methfessel-Paxton smearing, width (Ry)=  0.0200
                       cart. coord. in units 2pi/alat
        k(    1) = (   0.0000000   0.0000000   0.0000000), wk =   0.0011574
        k(    2) = (  -0.0827296   0.0827296  -0.0827296), wk =   0.0092593
        k(    3) = (  -0.1654592   0.1654592  -0.1654592), wk =   0.0092593
        k(    4) = (  -0.2481887   0.2481887  -0.2481887), wk =   0.0092593
        k(    5) = (  -0.3309183   0.3309183  -0.3309183), wk =   0.0092593
        k(    6) = (  -0.4136479   0.4136479  -0.4136479), wk =   0.0092593
        k(    7) = (   0.4963775  -0.4963775   0.4963775), wk =   0.0046296
        k(    8) = (   0.0000000   0.1654592   0.0000000), wk =   0.0069444
        k(    9) = (  -0.0827296   0.2481887  -0.0827296), wk =   0.0277778
        k(   10) = (  -0.1654592   0.3309183  -0.1654592), wk =   0.0277778
        k(   11) = (  -0.2481887   0.4136479  -0.2481887), wk =   0.0277778
        k(   12) = (  -0.3309183   0.4963775  -0.3309183), wk =   0.0277778
        k(   13) = (   0.5791071  -0.4136479   0.5791071), wk =   0.0277778
        k(   14) = (   0.4963775  -0.3309183   0.4963775), wk =   0.0277778
        k(   15) = (   0.4136479  -0.2481887   0.4136479), wk =   0.0277778
        k(   16) = (   0.3309183  -0.1654592   0.3309183), wk =   0.0277778
        k(   17) = (   0.2481887  -0.0827296   0.2481887), wk =   0.0277778
        k(   18) = (   0.1654592  -0.0000000   0.1654592), wk =   0.0138889
        k(   19) = (   0.0000000   0.3309183   0.0000000), wk =   0.0069444
        k(   20) = (  -0.0827296   0.4136479  -0.0827296), wk =   0.0277778
        k(   21) = (  -0.1654592   0.4963775  -0.1654592), wk =   0.0277778
        k(   22) = (  -0.2481887   0.5791071  -0.2481887), wk =   0.0277778
        k(   23) = (   0.6618366  -0.3309183   0.6618366), wk =   0.0277778
        k(   24) = (   0.5791071  -0.2481887   0.5791071), wk =   0.0277778
        k(   25) = (   0.4963775  -0.1654592   0.4963775), wk =   0.0277778
        k(   26) = (   0.4136479  -0.0827296   0.4136479), wk =   0.0277778
        k(   27) = (   0.3309183   0.0000000   0.3309183), wk =   0.0138889
        k(   28) = (   0.0000000   0.4963775   0.0000000), wk =   0.0069444
        k(   29) = (  -0.0827296   0.5791071  -0.0827296), wk =   0.0277778
        k(   30) = (  -0.1654592   0.6618366  -0.1654592), wk =   0.0277778
        k(   31) = (   0.7445662  -0.2481887   0.7445662), wk =   0.0277778
        k(   32) = (   0.6618366  -0.1654592   0.6618366), wk =   0.0277778
        k(   33) = (   0.5791071  -0.0827296   0.5791071), wk =   0.0277778
        k(   34) = (   0.4963775   0.0000000   0.4963775), wk =   0.0138889
        k(   35) = (   0.0000000   0.6618366   0.0000000), wk =   0.0069444
        k(   36) = (  -0.0827296   0.7445662  -0.0827296), wk =   0.0277778
        k(   37) = (   0.8272958  -0.1654592   0.8272958), wk =   0.0277778
        k(   38) = (   0.7445662  -0.0827296   0.7445662), wk =   0.0277778
        k(   39) = (   0.6618366  -0.0000000   0.6618366), wk =   0.0138889
        k(   40) = (   0.0000000   0.8272958   0.0000000), wk =   0.0069444
        k(   41) = (   0.9100254  -0.0827296   0.9100254), wk =   0.0277778
        k(   42) = (   0.8272958   0.0000000   0.8272958), wk =   0.0138889
        k(   43) = (   0.0000000  -0.9927550   0.0000000), wk =   0.0034722
        k(   44) = (  -0.1654592   0.3309183   0.0000000), wk =   0.0277778
        k(   45) = (  -0.2481887   0.4136479  -0.0827296), wk =   0.0555556
        k(   46) = (  -0.3309183   0.4963775  -0.1654592), wk =   0.0555556
        k(   47) = (   0.5791071  -0.4136479   0.7445662), wk =   0.0555556
        k(   48) = (   0.4963775  -0.3309183   0.6618366), wk =   0.0277778
        k(   49) = (  -0.1654592   0.4963775   0.0000000), wk =   0.0277778
        k(   50) = (  -0.2481887   0.5791071  -0.0827296), wk =   0.0555556
        k(   51) = (   0.6618366  -0.3309183   0.8272958), wk =   0.0555556
        k(   52) = (   0.5791071  -0.2481887   0.7445662), wk =   0.0555556
        k(   53) = (   0.4963775  -0.1654592   0.6618366), wk =   0.0555556
        k(   54) = (   0.4136479  -0.0827296   0.5791071), wk =   0.0555556
        k(   55) = (   0.3309183   0.0000000   0.4963775), wk =   0.0277778
        k(   56) = (  -0.1654592   0.6618366  -0.0000000), wk =   0.0277778
        k(   57) = (   0.7445662  -0.2481887   0.9100254), wk =   0.0555556
        k(   58) = (   0.6618366  -0.1654592   0.8272958), wk =   0.0555556
        k(   59) = (   0.5791071  -0.0827296   0.7445662), wk =   0.0555556
        k(   60) = (   0.4963775   0.0000000   0.6618366), wk =   0.0277778
        k(   61) = (   0.8272958  -0.1654592   0.9927550), wk =   0.0277778
        k(   62) = (   0.7445662  -0.0827296   0.9100254), wk =   0.0555556
        k(   63) = (   0.6618366   0.0000000   0.8272958), wk =   0.0277778
        k(   64) = (  -0.1654592  -0.9927550  -0.0000000), wk =   0.0138889
        k(   65) = (   0.6618366  -0.3309183   0.9927550), wk =   0.0277778
        k(   66) = (   0.5791071  -0.2481887   0.9100254), wk =   0.0555556
        k(   67) = (   0.4963775  -0.1654592   0.8272958), wk =   0.0277778
        k(   68) = (   0.6618366  -0.1654592   0.9927550), wk =   0.0277778
        k(   69) = (   0.5791071  -0.0827296   0.9100254), wk =   0.0555556
        k(   70) = (   0.4963775   0.0000000   0.8272958), wk =   0.0277778
        k(   71) = (  -0.3309183  -0.9927550   0.0000000), wk =   0.0138889
        k(   72) = (  -0.4963775  -0.9927550   0.0000000), wk =   0.0069444

     Dense  grid:    37309 G-vectors     FFT dimensions: (  48,  48,  48)

     Smooth grid:    13323 G-vectors     FFT dimensions: (  36,  36,  36)

     Estimated max dynamical RAM per process >      21.69 MB

     Estimated total dynamical RAM >     130.16 MB

     The potential is recalculated from file :
     ./out/silicon.save/charge-density

     Starting wfcs are    8 randomized atomic wfcs
     Checking if some PAW data can be deallocated... 

     Band Structure Calculation
     Davidson diagonalization with overlap

     ethr =  1.25E-10,  avg # of iterations = 33.5

     total cpu time spent up to now is        3.6 secs

     End of band structure calculation

          k = 0.0000 0.0000 0.0000 (  1639 PWs)   bands (ev):

    -5.8358   5.9833   5.9833   5.9833   8.5374   8.5374   8.5374   9.1017

          k =-0.0827 0.0827-0.0827 (  1654 PWs)   bands (ev):

    -5.7465   5.1236   5.8427   5.8427   8.5432   8.7443   8.7443   9.8084

          k =-0.1655 0.1655-0.1655 (  1642 PWs)   bands (ev):

    -5.4813   3.6166   5.5416   5.5416   8.2639   9.1735   9.1735  11.2531

          k =-0.2482 0.2482-0.2482 (  1642 PWs)   bands (ev):

    -5.0513   2.0928   5.2368   5.2368   7.9376   9.4721   9.4721  12.7274

          k =-0.3309 0.3309-0.3309 (  1634 PWs)   bands (ev):

    -4.4863   0.7092   4.9990   4.9990   7.6708   9.4864   9.4864  13.7663

          k =-0.4136 0.4136-0.4136 (  1652 PWs)   bands (ev):

    -3.8814  -0.3978   4.8521   4.8521   7.5022   9.3842   9.3842  13.7665

          k = 0.4964-0.4964 0.4964 (  1676 PWs)   bands (ev):

    -3.5581  -0.8900   4.8027   4.8027   7.4449   9.3332   9.3332  13.6908

          k = 0.0000 0.1655 0.0000 (  1655 PWs)   bands (ev):

    -5.7166   5.2718   5.5641   5.5641   8.2689   9.1033   9.1033   9.7633

          k =-0.0827 0.2482-0.0827 (  1651 PWs)   bands (ev):

    -5.5095   4.0568   5.2074   5.3855   8.2876   9.1396   9.6322  10.7409

          k =-0.1655 0.3309-0.1655 (  1642 PWs)   bands (ev):

    -5.1328   2.5781   4.8990   5.0657   8.3854   9.1467  10.0175  11.3425

          k =-0.2482 0.4136-0.2482 (  1645 PWs)   bands (ev):

    -4.6077   1.1659   4.6914   4.7175   8.2208   9.2611  10.0533  11.9211

          k =-0.3309 0.4964-0.3309 (  1645 PWs)   bands (ev):

    -3.9966  -0.0407   4.4259   4.6016   8.0490   9.2463   9.8713  12.9508

          k = 0.5791-0.4136 0.5791 (  1651 PWs)   bands (ev):

    -3.5204  -0.7916   4.2251   4.6305   7.9651   9.2553   9.6794  13.8539

          k = 0.4964-0.3309 0.4964 (  1646 PWs)   bands (ev):

    -3.6373  -0.6188   4.1330   4.7700   7.9887   9.3715   9.5700  13.9621

          k = 0.4136-0.2482 0.4136 (  1645 PWs)   bands (ev):

    -4.2033   0.3318   4.1622   5.0050   8.1193   9.5324   9.5733  13.3870

          k = 0.3309-0.1655 0.3309 (  1639 PWs)   bands (ev):

    -4.7980   1.6221   4.3223   5.3096   8.3440   9.4405   9.7110  12.4084

          k = 0.2482-0.0827 0.2482 (  1645 PWs)   bands (ev):

    -5.2771   3.0564   4.6250   5.6335   8.6283   9.1365   9.4835  11.5940

          k = 0.1655-0.0000 0.1655 (  1651 PWs)   bands (ev):

    -5.5983   4.3910   5.1411   5.8655   8.7833   8.8420   8.9306  10.6346

          k = 0.0000 0.3309 0.0000 (  1647 PWs)   bands (ev):

    -5.3606   3.9249   4.8167   4.8167   7.6965  10.1895  10.2836  10.2836

          k =-0.0827 0.4136-0.0827 (  1641 PWs)   bands (ev):

    -5.0395   2.8593   4.4688   4.4880   7.7154   9.8264  10.6326  10.8401

          k =-0.1655 0.4964-0.1655 (  1651 PWs)   bands (ev):

    -4.5610   1.5755   4.0203   4.2723   7.9516   9.9867  10.4875  11.0165

          k =-0.2482 0.5791-0.2482 (  1644 PWs)   bands (ev):

    -3.9663   0.3663   3.5872   4.1886   7.9955  10.1727  10.8509  11.0092

          k = 0.6618-0.3309 0.6618 (  1641 PWs)   bands (ev):

    -3.3985  -0.5455   3.2489   4.2402   8.0224  10.0438  10.5886  12.3489

          k = 0.5791-0.2482 0.5791 (  1647 PWs)   bands (ev):

    -3.2880  -0.7004   3.0406   4.4196   8.1572  10.0043  10.3663  13.8795

          k = 0.4964-0.1655 0.4964 (  1644 PWs)   bands (ev):

    -3.7730   0.0391   2.9887   4.7082   8.4071  10.0664  10.1971  13.1763

          k = 0.4136-0.0827 0.4136 (  1643 PWs)   bands (ev):

    -4.3831   1.1607   3.1368   5.0686   8.7205   9.9601  10.1263  12.0258

          k = 0.3309 0.0000 0.3309 (  1646 PWs)   bands (ev):

    -4.9043   2.2815   3.6239   5.4253   8.9569   9.5179   9.7959  11.5636

          k = 0.0000 0.4964 0.0000 (  1636 PWs)   bands (ev):

    -4.7737   2.4597   4.1323   4.1323   7.1344   9.1202  11.6720  11.6720

          k =-0.0827 0.5791-0.0827 (  1651 PWs)   bands (ev):

    -4.3454   1.5655   3.6753   3.8897   7.2176   8.7765  11.9441  12.1533

          k =-0.1655 0.6618-0.1655 (  1652 PWs)   bands (ev):

    -3.7819   0.5582   3.0548   3.7836   7.4373   9.2355  11.8011  12.1259

          k = 0.7446-0.2482 0.7446 (  1651 PWs)   bands (ev):

    -3.1729  -0.3456   2.5178   3.8208   7.5257  10.4177  11.6265  11.8609

          k = 0.6618-0.1655 0.6618 (  1645 PWs)   bands (ev):

    -2.8596  -0.7473   2.1626   3.9967   7.6994  11.3925  11.5688  12.0648

          k = 0.5791-0.0827 0.5791 (  1642 PWs)   bands (ev):

    -3.2251  -0.2670   2.0492   4.2950   8.0125  11.2643  11.3613  13.0618

          k = 0.4964 0.0000 0.4964 (  1634 PWs)   bands (ev):

    -3.8325   0.5385   2.3114   4.6788   8.4199  10.7297  11.0696  12.0202

          k = 0.0000 0.6618 0.0000 (  1644 PWs)   bands (ev):

    -3.9667   0.9874   3.6134   3.6134   6.7418   8.0067  13.1546  13.1546

          k =-0.0827 0.7446-0.0827 (  1652 PWs)   bands (ev):

    -3.4424   0.2146   3.1402   3.4729   6.9038   7.8741  13.4623  13.5292

          k = 0.8273-0.1655 0.8273 (  1646 PWs)   bands (ev):

    -2.8270  -0.5399   2.4312   3.4785   7.0803   8.7071  13.3472  13.3611

          k = 0.7446-0.0827 0.7446 (  1650 PWs)   bands (ev):

    -2.3721  -1.0183   1.8672   3.6290   7.2536  10.1327  13.0127  13.1811

          k = 0.6618-0.0000 0.6618 (  1652 PWs)   bands (ev):

    -2.6404  -0.7357   1.6700   3.9116   7.5716  11.7654  12.3881  12.9518

          k = 0.0000 0.8273 0.0000 (  1644 PWs)   bands (ev):

    -2.9565  -0.4387   3.2937   3.2937   6.5941   7.2007  14.6887  14.6887

          k = 0.9100-0.0827 0.9100 (  1650 PWs)   bands (ev):

    -2.3551  -1.1148   2.8749   3.2604   6.7960   7.3561  14.9363  15.0158

          k = 0.8273 0.0000 0.8273 (  1654 PWs)   bands (ev):

    -1.9129  -1.5094   2.2240   3.3751   6.9538   8.5338  14.3910  14.8681

          k = 0.0000-0.9928 0.0000 (  1660 PWs)   bands (ev):

    -1.7686  -1.7686   3.1859   3.1859   6.7360   6.7360  15.9067  15.9067

          k =-0.1655 0.3309 0.0000 (  1641 PWs)   bands (ev):

    -5.2457   3.2582   4.3863   5.2856   8.3166   9.4453  10.0992  10.8537

          k =-0.2482 0.4136-0.0827 (  1642 PWs)   bands (ev):

    -4.8178   2.0383   3.8590   5.0164   8.5856   9.4288  10.5057  10.8679

          k =-0.3309 0.4964-0.1655 (  1641 PWs)   bands (ev):

    -4.2545   0.7623   3.5883   4.6966   8.6064   9.3512  10.5666  11.5011

          k = 0.5791-0.4136 0.7446 (  1646 PWs)   bands (ev):

    -3.6481  -0.3039   3.4591   4.4564   8.5369   9.1909  10.4918  12.6909

          k = 0.4964-0.3309 0.6618 (  1648 PWs)   bands (ev):

    -3.3204  -0.7887   3.4225   4.3672   8.5093   9.1166  10.4486  13.9732

          k =-0.1655 0.4964 0.0000 (  1651 PWs)   bands (ev):

    -4.6656   2.0704   3.7035   4.3863   7.7809   9.4979  10.7485  11.5554

          k =-0.2482 0.5791-0.0827 (  1649 PWs)   bands (ev):

    -4.1436   1.0398   3.1728   4.1056   8.1104   9.7203  10.4913  11.9400

          k = 0.6618-0.3309 0.8273 (  1649 PWs)   bands (ev):

    -3.5323   0.0095   2.8176   3.9009   8.2317  10.1628  10.7511  11.9256

          k = 0.5791-0.2482 0.7446 (  1650 PWs)   bands (ev):

    -3.0497  -0.6777   2.5749   3.8833   8.3553   9.8914  11.8196  12.2040

          k = 0.4964-0.1655 0.6618 (  1645 PWs)   bands (ev):

    -3.1815  -0.4957   2.4612   4.0515   8.5951   9.7092  11.7303  12.5993

          k = 0.4136-0.0827 0.5791 (  1643 PWs)   bands (ev):

    -3.7565   0.3591   2.5395   4.3608   8.9379   9.5726  11.2248  11.7040

          k = 0.3309 0.0000 0.4964 (  1651 PWs)   bands (ev):

    -4.3461   1.3191   2.9512   4.7332   9.1786   9.2937  10.6394  11.2644

          k =-0.1655 0.6618-0.0000 (  1656 PWs)   bands (ev):

    -3.8705   0.8164   3.2030   3.6217   7.3933   8.4821  11.9694  13.1052

          k = 0.7446-0.2482 0.9100 (  1651 PWs)   bands (ev):

    -3.2775  -0.0042   2.6284   3.4104   7.7271   8.9971  11.6758  13.4696

          k = 0.6618-0.1655 0.8273 (  1652 PWs)   bands (ev):

    -2.7032  -0.7020   2.1188   3.4178   7.8801  10.2742  11.3837  13.3975

          k = 0.5791-0.0827 0.7446 (  1651 PWs)   bands (ev):

    -2.6358  -0.7696   1.8378   3.6116   8.1304  11.0089  11.9821  12.6346

          k = 0.4964 0.0000 0.6618 (  1645 PWs)   bands (ev):

    -3.1601  -0.1913   1.9236   3.9489   8.5105  10.5937  11.4377  12.7591

          k = 0.8273-0.1655 0.9928 (  1650 PWs)   bands (ev):

    -2.8815  -0.4758   2.9247   3.1182   7.2300   7.7458  13.3305  14.6817

          k = 0.7446-0.0827 0.9100 (  1653 PWs)   bands (ev):

    -2.2666  -1.1078   2.3148   3.0749   7.5216   8.6305  13.0186  14.4640

          k = 0.6618 0.0000 0.8273 (  1649 PWs)   bands (ev):

    -2.1200  -1.2158   1.8304   3.2678   7.7541  10.1400  12.5642  12.9544

          k =-0.1655-0.9928-0.0000 (  1656 PWs)   bands (ev):

    -1.7325  -1.7325   2.8905   2.8905   7.3361   7.3361  14.7746  14.7746

          k = 0.6618-0.3309 0.9928 (  1657 PWs)   bands (ev):

    -3.5910   0.3699   2.4904   3.7376   8.8287   9.7059  10.1589  12.9658

          k = 0.5791-0.2482 0.9100 (  1649 PWs)   bands (ev):

    -2.9813  -0.3847   2.1488   3.4097   9.2055   9.7299  10.6946  13.3918

          k = 0.4964-0.1655 0.8273 (  1652 PWs)   bands (ev):

    -2.6312  -0.8019   2.0558   3.2837   9.3515   9.4998  12.0428  12.4203

          k = 0.6618-0.1655 0.9928 (  1651 PWs)   bands (ev):

    -2.6743  -0.6185   2.2974   2.9053   8.6652   9.0748  11.3054  14.1897

          k = 0.5791-0.0827 0.9100 (  1646 PWs)   bands (ev):

    -2.1643  -1.1155   1.9917   2.7543   9.0065  10.2640  11.0280  12.4076

          k = 0.4964 0.0000 0.8273 (  1643 PWs)   bands (ev):

    -2.3915  -0.8886   1.8696   2.9739   9.3049  10.4373  10.9327  12.1588

          k =-0.3309-0.9928 0.0000 (  1646 PWs)   bands (ev):

    -1.6555  -1.6555   2.4206   2.4206   8.7362   8.7362  12.6704  12.6704

          k =-0.4964-0.9928 0.0000 (  1648 PWs)   bands (ev):

    -1.6142  -1.6142   2.2195   2.2195  10.2582  10.2582  10.9117  10.9117

     the Fermi energy is     6.2851 ev
     (compare with:     5.8427 eV, computed in scf)

     Writing all to output data dir ./out/silicon.save/ :
     XML data file, pseudopotentials, collected wavefunctions

     init_run     :      0.37s CPU      0.41s WALL (       1 calls)
     electrons    :      2.93s CPU      3.07s WALL (       1 calls)

     Called by init_run:
     wfcinit      :      0.00s CPU      0.00s WALL (       1 calls)
     potinit      :      0.15s CPU      0.17s WALL (       1 calls)
     hinit0       :      0.17s CPU      0.17s WALL (       1 calls)

     Called by electrons:
     c_bands      :      2.93s CPU      3.07s WALL (       1 calls)
     v_of_rho     :      0.01s CPU      0.01s WALL (       1 calls)
     newd         :      0.02s CPU      0.03s WALL (       1 calls)
     PAW_pot      :      0.04s CPU      0.07s WALL (       1 calls)

     Called by c_bands:
     init_us_2    :      0.00s CPU      0.00s WALL (      72 calls)
     cegterg      :      2.80s CPU      2.93s WALL (     154 calls)

     Called by *egterg:
     cdiaghg      :      0.14s CPU      0.15s WALL (    2482 calls)
     h_psi        :      1.99s CPU      2.09s WALL (    2636 calls)
     s_psi        :      0.20s CPU      0.21s WALL (    2636 calls)
     g_psi        :      0.01s CPU      0.01s WALL (    2410 calls)

     Called by h_psi:
     h_psi:calbec :      0.22s CPU      0.23s WALL (    2636 calls)
     vloc_psi     :      1.56s CPU      1.63s WALL (    2636 calls)
     add_vuspsi   :      0.20s CPU      0.21s WALL (    2636 calls)

     General routines
     calbec       :      0.22s CPU      0.23s WALL (    2636 calls)
     fft          :      0.14s CPU      0.14s WALL (      13 calls)
     ffts         :      0.10s CPU      0.10s WALL (       1 calls)
     fftw         :      1.38s CPU      1.44s WALL (   28668 calls)
     interpolate  :      0.10s CPU      0.10s WALL (       1 calls)
     davcio       :      0.00s CPU      0.00s WALL (     144 calls)

     Parallel routines

     PWSCF        :      3.42s CPU      3.64s WALL


   This run was terminated on:   6:36:44   7Jul2025            

=------------------------------------------------------------------------------=
   JOB DONE.
=------------------------------------------------------------------------------=
