
     Program PWSCF v.7.4.1 starts on  7Jul2025 at  6:21:27 

     This program is part of the open-source Quantum ESPRESSO suite
     for quantum simulation of materials; please cite
         "P. Giannozzi et al., J. Phys.:Condens. Matter 21 395502 (2009);
         "P. Giannozzi et al., J. Phys.:Condens. Matter 29 465901 (2017);
         "P. Giannozzi et al., J. Chem. Phys. 152 154105 (2020);
          URL http://www.quantum-espresso.org", 
     in publications or presentations arising from this work. More details at
     http://www.quantum-espresso.org/quote

     Parallel version (MPI), running on     6 processors

     MPI processes distributed on     1 nodes
     10486 MiB available memory on the printing compute node when the environment starts

     Waiting for input...
     Reading input from standard input

     Current dimensions of program PWSCF are:
     Max number of different atomic species (ntypx) = 10
     Max number of k-points (npk) =  40000
     Max angular momentum in pseudopotentials (lmaxx) =  4
     file Si.pbe-n-kjpaw_psl.1.0.0.UPF: wavefunction(s)  3S 3P renormalized

     R & G space division:  proc/nbgrp/npool/nimage =       6
     Subspace diagonalization in iterative solution of the eigenvalue problem:
     a serial algorithm will be used


     Parallelization info
     --------------------
     sticks:   dense  smooth     PW     G-vecs:    dense   smooth      PW
     Min         241     122     37                 6054     2155     371
     Max         243     123     38                 6055     2157     373
     Sum        1453     733    223                36325    12939    2229

     Using Slab Decomposition



     bravais-lattice index     =            2
     lattice parameter (alat)  =      10.2600  a.u.
     unit-cell volume          =     270.0114 (a.u.)^3
     number of atoms/cell      =            2
     number of atomic types    =            1
     number of electrons       =         8.00
     number of Kohn-Sham states=            4
     kinetic-energy cutoff     =      50.0000  Ry
     charge density cutoff     =     400.0000  Ry
     scf convergence threshold =      1.0E-08
     mixing beta               =       0.7000
     number of iterations used =            8  plain     mixing
     Exchange-correlation= SLA  PW   PBX  PBC
                           (   1   4   3   4   0   0   0)

     celldm(1)=  10.260000  celldm(2)=   0.000000  celldm(3)=   0.000000
     celldm(4)=   0.000000  celldm(5)=   0.000000  celldm(6)=   0.000000

     crystal axes: (cart. coord. in units of alat)
               a(1) = (  -0.500000   0.000000   0.500000 )  
               a(2) = (   0.000000   0.500000   0.500000 )  
               a(3) = (  -0.500000   0.500000   0.000000 )  

     reciprocal axes: (cart. coord. in units 2 pi/alat)
               b(1) = ( -1.000000 -1.000000  1.000000 )  
               b(2) = (  1.000000  1.000000  1.000000 )  
               b(3) = ( -1.000000  1.000000 -1.000000 )  


     PseudoPot. # 1 for Si read from file:
     ./Si.pbe-n-kjpaw_psl.1.0.0.UPF
     MD5 check sum: c39c59da582df4a0d9f10159256ea34e
     Pseudo is Projector augmented-wave + core cor, Zval =  4.0
     Generated using &quot;atomic&quot; code by A. Dal Corso  v.6.3
     Shape of augmentation charge: PSQ
     Using radial grid of 1141 points,  6 beta functions with: 
                l(1) =   0
                l(2) =   0
                l(3) =   1
                l(4) =   1
                l(5) =   2
                l(6) =   2
     Q(r) pseudized with 0 coefficients 


     atomic species   valence    mass     pseudopotential
     Si                4.00    28.08550     Si( 1.00)

     48 Sym. Ops., with inversion, found (24 have fractional translation)



   Cartesian axes

     site n.     atom                  positions (alat units)
         1        Si     tau(   1) = (   0.0000000   0.0000000   0.0000000  )
         2        Si     tau(   2) = (  -0.2500000   0.2500000   0.2500000  )

     number of k points=    28
                       cart. coord. in units 2pi/alat
        k(    1) = (  -0.0833333   0.0833333   0.0833333), wk =   0.0185185
        k(    2) = (  -0.2500000   0.2500000  -0.0833333), wk =   0.0555556
        k(    3) = (  -0.4166667   0.4166667  -0.2500000), wk =   0.0555556
        k(    4) = (   0.4166667  -0.4166667   0.5833333), wk =   0.0555556
        k(    5) = (   0.2500000  -0.2500000   0.4166667), wk =   0.0555556
        k(    6) = (   0.0833333  -0.0833333   0.2500000), wk =   0.0555556
        k(    7) = (  -0.0833333   0.4166667   0.0833333), wk =   0.0555556
        k(    8) = (  -0.2500000   0.5833333  -0.0833333), wk =   0.1111111
        k(    9) = (   0.5833333  -0.2500000   0.7500000), wk =   0.1111111
        k(   10) = (   0.4166667  -0.0833333   0.5833333), wk =   0.1111111
        k(   11) = (   0.2500000   0.0833333   0.4166667), wk =   0.1111111
        k(   12) = (  -0.0833333   0.7500000   0.0833333), wk =   0.0555556
        k(   13) = (   0.7500000  -0.0833333   0.9166667), wk =   0.1111111
        k(   14) = (   0.5833333   0.0833333   0.7500000), wk =   0.1111111
        k(   15) = (   0.4166667   0.2500000   0.5833333), wk =   0.1111111
        k(   16) = (  -0.0833333  -0.9166667   0.0833333), wk =   0.0555556
        k(   17) = (  -0.2500000  -0.7500000  -0.0833333), wk =   0.1111111
        k(   18) = (  -0.0833333  -0.5833333   0.0833333), wk =   0.0555556
        k(   19) = (  -0.2500000   0.2500000   0.2500000), wk =   0.0185185
        k(   20) = (  -0.4166667   0.4166667   0.0833333), wk =   0.0555556
        k(   21) = (   0.4166667  -0.4166667   0.9166667), wk =   0.0555556
        k(   22) = (   0.2500000  -0.2500000   0.7500000), wk =   0.0555556
        k(   23) = (  -0.2500000   0.5833333   0.2500000), wk =   0.0555556
        k(   24) = (   0.5833333  -0.2500000   1.0833333), wk =   0.1111111
        k(   25) = (   0.4166667  -0.0833333   0.9166667), wk =   0.1111111
        k(   26) = (  -0.2500000  -1.0833333   0.2500000), wk =   0.0555556
        k(   27) = (  -0.4166667   0.4166667   0.4166667), wk =   0.0185185
        k(   28) = (   0.4166667  -0.4166667   1.2500000), wk =   0.0555556

     Dense  grid:    36325 G-vectors     FFT dimensions: (  48,  48,  48)

     Smooth grid:    12939 G-vectors     FFT dimensions: (  36,  36,  36)

     Estimated max dynamical RAM per process >      23.35 MB

     Estimated total dynamical RAM >     140.08 MB

     Initial potential from superposition of free atoms

     starting charge       7.9989, renormalised to       8.0000
     Starting wfcs are    8 randomized atomic wfcs
     Checking if some PAW data can be deallocated... 

     total cpu time spent up to now is        0.5 secs

     Self-consistent Calculation

     iteration #  1     ecut=    50.00 Ry     beta= 0.70
     Davidson diagonalization with overlap
     ethr =  1.00E-02,  avg # of iterations =  2.0

     Threshold (ethr) on eigenvalues was too large:
     Diagonalizing with lowered threshold

     Davidson diagonalization with overlap
     ethr =  6.22E-04,  avg # of iterations =  1.5

     total cpu time spent up to now is        0.8 secs

     total energy              =     -93.45041600 Ry
     estimated scf accuracy    <       0.05391880 Ry

     iteration #  2     ecut=    50.00 Ry     beta= 0.70
     Davidson diagonalization with overlap
     ethr =  6.74E-04,  avg # of iterations =  1.0

     total cpu time spent up to now is        1.0 secs

     total energy              =     -93.45236498 Ry
     estimated scf accuracy    <       0.00282803 Ry

     iteration #  3     ecut=    50.00 Ry     beta= 0.70
     Davidson diagonalization with overlap
     ethr =  3.54E-05,  avg # of iterations =  3.0

     total cpu time spent up to now is        1.1 secs

     total energy              =     -93.45316407 Ry
     estimated scf accuracy    <       0.00011071 Ry

     iteration #  4     ecut=    50.00 Ry     beta= 0.70
     Davidson diagonalization with overlap
     ethr =  1.38E-06,  avg # of iterations =  3.6

     total cpu time spent up to now is        1.4 secs

     total energy              =     -93.45322850 Ry
     estimated scf accuracy    <       0.00001518 Ry

     iteration #  5     ecut=    50.00 Ry     beta= 0.70
     Davidson diagonalization with overlap
     ethr =  1.90E-07,  avg # of iterations =  3.2

     total cpu time spent up to now is        1.6 secs

     total energy              =     -93.45323488 Ry
     estimated scf accuracy    <       0.00000036 Ry

     iteration #  6     ecut=    50.00 Ry     beta= 0.70
     Davidson diagonalization with overlap
     ethr =  4.46E-09,  avg # of iterations =  5.8

     total cpu time spent up to now is        1.8 secs

     total energy              =     -93.45323539 Ry
     estimated scf accuracy    <       0.00000010 Ry

     iteration #  7     ecut=    50.00 Ry     beta= 0.70
     Davidson diagonalization with overlap
     ethr =  1.23E-09,  avg # of iterations =  2.4

     total cpu time spent up to now is        2.0 secs

     End of self-consistent calculation

          k =-0.0833 0.0833 0.0833 (  1606 PWs)   bands (ev):

    -5.6673   5.3505   6.0660   6.0660

          k =-0.2500 0.2500-0.0833 (  1600 PWs)   bands (ev):

    -5.1888   3.2649   4.8226   5.8560

          k =-0.4167 0.4167-0.2500 (  1611 PWs)   bands (ev):

    -4.0916   0.4894   4.3586   5.2158

          k = 0.4167-0.4167 0.5833 (  1613 PWs)   bands (ev):

    -3.3884  -0.6616   4.4270   4.8326

          k = 0.2500-0.2500 0.4167 (  1606 PWs)   bands (ev):

    -4.5055   1.3402   4.8914   4.9289

          k = 0.0833-0.0833 0.2500 (  1599 PWs)   bands (ev):

    -5.4258   4.2810   5.4149   5.6061

          k =-0.0833 0.4167 0.0833 (  1612 PWs)   bands (ev):

    -4.9468   3.0823   4.6682   4.6808

          k =-0.2500 0.5833-0.0833 (  1611 PWs)   bands (ev):

    -4.0326   1.2357   3.3405   4.2926

          k = 0.5833-0.2500 0.7500 (  1607 PWs)   bands (ev):

    -2.9094  -0.5272   2.7380   4.0633

          k = 0.4167-0.0833 0.5833 (  1608 PWs)   bands (ev):

    -3.6360   0.5383   2.6933   4.5537

          k = 0.2500 0.0833 0.4167 (  1607 PWs)   bands (ev):

    -4.7204   2.2386   4.0417   5.2275

          k =-0.0833 0.7500 0.0833 (  1618 PWs)   bands (ev):

    -3.3183   0.4092   3.3037   3.6472

          k = 0.7500-0.0833 0.9167 (  1620 PWs)   bands (ev):

    -2.1164  -0.9364   2.4546   3.2366

          k = 0.5833 0.0833 0.7500 (  1614 PWs)   bands (ev):

    -2.4876  -0.6026   1.9690   3.7856

          k = 0.4167 0.2500 0.5833 (  1612 PWs)   bands (ev):

    -3.5227  -0.1553   3.6451   4.6527

          k =-0.0833-0.9167 0.0833 (  1620 PWs)   bands (ev):

    -2.2094  -0.9449   3.0325   3.4310

          k =-0.2500-0.7500-0.0833 (  1621 PWs)   bands (ev):

    -3.1486   0.1841   2.7796   3.5787

          k =-0.0833-0.5833 0.0833 (  1617 PWs)   bands (ev):

    -4.2392   1.7797   3.8524   4.0714

          k =-0.2500 0.2500 0.2500 (  1618 PWs)   bands (ev):

    -4.9584   2.2798   5.4493   5.4493

          k =-0.4167 0.4167 0.0833 (  1613 PWs)   bands (ev):

    -4.2763   1.3471   3.3044   5.2799

          k = 0.4167-0.4167 0.9167 (  1607 PWs)   bands (ev):

    -3.0912  -0.0978   2.1899   4.4881

          k = 0.2500-0.2500 0.7500 (  1617 PWs)   bands (ev):

    -3.0391  -0.1772   2.6728   4.0028

          k =-0.2500 0.5833 0.2500 (  1610 PWs)   bands (ev):

    -3.8503   0.5346   3.7758   4.3780

          k = 0.5833-0.2500 1.0833 (  1611 PWs)   bands (ev):

    -2.8434  -0.2084   2.2901   3.5755

          k = 0.4167-0.0833 0.9167 (  1613 PWs)   bands (ev):

    -2.0082  -0.9442   2.1226   2.9031

          k =-0.2500-1.0833 0.2500 (  1620 PWs)   bands (ev):

    -2.2195  -0.8515   1.9956   3.8073

          k =-0.4167 0.4167 0.4167 (  1610 PWs)   bands (ev):

    -3.7602  -0.2591   5.0599   5.0599

          k = 0.4167-0.4167 1.2500 (  1602 PWs)   bands (ev):

    -3.1519  -0.5605   3.2167   4.6160

     highest occupied level (ev):     6.0660

!    total energy              =     -93.45323541 Ry
     total all-electron energy =     -1160.144965 Ry
     estimated scf accuracy    <          5.4E-09 Ry

     The total energy is the sum of the following terms:
     one-electron contribution =       5.74436470 Ry
     hartree contribution      =       1.09962718 Ry
     xc contribution           =     -12.30945888 Ry
     ewald contribution        =     -16.80092957 Ry
     one-center paw contrib.   =     -71.18683884 Ry

     convergence has been achieved in   7 iterations

     Writing all to output data dir ./out/silicon.save/ :
     XML data file, charge density, pseudopotentials, collected wavefunctions

     init_run     :      0.41s CPU      0.45s WALL (       1 calls)
     electrons    :      1.37s CPU      1.44s WALL (       1 calls)

     Called by init_run:
     wfcinit      :      0.04s CPU      0.04s WALL (       1 calls)
     potinit      :      0.16s CPU      0.18s WALL (       1 calls)
     hinit0       :      0.17s CPU      0.17s WALL (       1 calls)

     Called by electrons:
     c_bands      :      0.58s CPU      0.61s WALL (       8 calls)
     sum_band     :      0.23s CPU      0.24s WALL (       8 calls)
     v_of_rho     :      0.04s CPU      0.04s WALL (       8 calls)
     newd         :      0.16s CPU      0.17s WALL (       8 calls)
     PAW_pot      :      0.42s CPU      0.46s WALL (       8 calls)
     mix_rho      :      0.00s CPU      0.00s WALL (       8 calls)

     Called by c_bands:
     init_us_2    :      0.02s CPU      0.02s WALL (     476 calls)
     cegterg      :      0.52s CPU      0.54s WALL (     224 calls)

     Called by *egterg:
     cdiaghg      :      0.01s CPU      0.01s WALL (     824 calls)
     h_psi        :      0.43s CPU      0.45s WALL (     880 calls)
     s_psi        :      0.04s CPU      0.04s WALL (     880 calls)
     g_psi        :      0.00s CPU      0.00s WALL (     628 calls)

     Called by h_psi:
     h_psi:calbec :      0.05s CPU      0.05s WALL (     880 calls)
     vloc_psi     :      0.34s CPU      0.36s WALL (     880 calls)
     add_vuspsi   :      0.04s CPU      0.04s WALL (     880 calls)

     General routines
     calbec       :      0.06s CPU      0.06s WALL (    1104 calls)
     fft          :      0.15s CPU      0.16s WALL (     103 calls)
     ffts         :      0.10s CPU      0.10s WALL (      16 calls)
     fftw         :      0.34s CPU      0.36s WALL (    7002 calls)
     interpolate  :      0.10s CPU      0.10s WALL (       8 calls)

     Parallel routines

     PWSCF        :      1.87s CPU      1.99s WALL


   This run was terminated on:   6:21:29   7Jul2025            

=------------------------------------------------------------------------------=
   JOB DONE.
=------------------------------------------------------------------------------=
