
     Program PWSCF v.7.4.1 starts on  7Jul2025 at  6:27:36 

     This program is part of the open-source Quantum ESPRESSO suite
     for quantum simulation of materials; please cite
         "P. Giannozzi et al., J. Phys.:Condens. Matter 21 395502 (2009);
         "P. Giannozzi et al., J. Phys.:Condens. Matter 29 465901 (2017);
         "P. Giannozzi et al., J. Chem. Phys. 152 154105 (2020);
          URL http://www.quantum-espresso.org", 
     in publications or presentations arising from this work. More details at
     http://www.quantum-espresso.org/quote

     Parallel version (MPI), running on     6 processors

     MPI processes distributed on     1 nodes
     10527 MiB available memory on the printing compute node when the environment starts

     Waiting for input...
     Reading input from standard input

     Current dimensions of program PWSCF are:
     Max number of different atomic species (ntypx) = 10
     Max number of k-points (npk) =  40000
     Max angular momentum in pseudopotentials (lmaxx) =  4
     file Si.pbe-n-kjpaw_psl.1.0.0.UPF: wavefunction(s)  3S 3P renormalized

     R & G space division:  proc/nbgrp/npool/nimage =       6
     Subspace diagonalization in iterative solution of the eigenvalue problem:
     a serial algorithm will be used


     Parallelization info
     --------------------
     sticks:   dense  smooth     PW     G-vecs:    dense   smooth      PW
     Min         241     122     37                 6054     2155     371
     Max         243     123     38                 6055     2157     373
     Sum        1453     733    223                36325    12939    2229

     Using Slab Decomposition



     bravais-lattice index     =            2
     lattice parameter (alat)  =      10.2600  a.u.
     unit-cell volume          =     270.0114 (a.u.)^3
     number of atoms/cell      =            2
     number of atomic types    =            1
     number of electrons       =         8.00
     number of Kohn-Sham states=            4
     kinetic-energy cutoff     =      50.0000  Ry
     charge density cutoff     =     400.0000  Ry
     scf convergence threshold =      1.0E-08
     mixing beta               =       0.7000
     number of iterations used =            8  plain     mixing
     energy convergence thresh.=      1.0E-04
     force convergence thresh. =      1.0E-03
     press convergence thresh. =      5.0E-01
     Exchange-correlation= SLA  PW   PBX  PBC
                           (   1   4   3   4   0   0   0)
     nstep                     =           50


     celldm(1)=  10.260000  celldm(2)=   0.000000  celldm(3)=   0.000000
     celldm(4)=   0.000000  celldm(5)=   0.000000  celldm(6)=   0.000000

     crystal axes: (cart. coord. in units of alat)
               a(1) = (  -0.500000   0.000000   0.500000 )  
               a(2) = (   0.000000   0.500000   0.500000 )  
               a(3) = (  -0.500000   0.500000   0.000000 )  

     reciprocal axes: (cart. coord. in units 2 pi/alat)
               b(1) = ( -1.000000 -1.000000  1.000000 )  
               b(2) = (  1.000000  1.000000  1.000000 )  
               b(3) = ( -1.000000  1.000000 -1.000000 )  


     PseudoPot. # 1 for Si read from file:
     ./Si.pbe-n-kjpaw_psl.1.0.0.UPF
     MD5 check sum: c39c59da582df4a0d9f10159256ea34e
     Pseudo is Projector augmented-wave + core cor, Zval =  4.0
     Generated using &quot;atomic&quot; code by A. Dal Corso  v.6.3
     Shape of augmentation charge: PSQ
     Using radial grid of 1141 points,  6 beta functions with: 
                l(1) =   0
                l(2) =   0
                l(3) =   1
                l(4) =   1
                l(5) =   2
                l(6) =   2
     Q(r) pseudized with 0 coefficients 


     atomic species   valence    mass     pseudopotential
     Si                4.00    28.08550     Si( 1.00)

     48 Sym. Ops., with inversion, found (24 have fractional translation)


                                    s                        frac. trans.

      isym =  1     identity                                     

 cryst.   s( 1) = (     1          0          0      )
                  (     0          1          0      )
                  (     0          0          1      )

 cart.    s( 1) = (  1.0000000  0.0000000  0.0000000 )
                  (  0.0000000  1.0000000  0.0000000 )
                  (  0.0000000  0.0000000  1.0000000 )


      isym =  2     180 deg rotation - cart. axis [0,0,1]        

 cryst.   s( 2) = (     0          1         -1      )
                  (     1          0         -1      )
                  (     0          0         -1      )

 cart.    s( 2) = ( -1.0000000  0.0000000  0.0000000 )
                  (  0.0000000 -1.0000000  0.0000000 )
                  (  0.0000000  0.0000000  1.0000000 )


      isym =  3     180 deg rotation - cart. axis [0,1,0]        

 cryst.   s( 3) = (    -1          0          0      )
                  (    -1          0          1      )
                  (    -1          1          0      )

 cart.    s( 3) = ( -1.0000000  0.0000000  0.0000000 )
                  (  0.0000000  1.0000000  0.0000000 )
                  (  0.0000000  0.0000000 -1.0000000 )


      isym =  4     180 deg rotation - cart. axis [1,0,0]        

 cryst.   s( 4) = (     0         -1          1      )
                  (     0         -1          0      )
                  (     1         -1          0      )

 cart.    s( 4) = (  1.0000000  0.0000000  0.0000000 )
                  (  0.0000000 -1.0000000  0.0000000 )
                  (  0.0000000  0.0000000 -1.0000000 )


      isym =  5     180 deg rotation - cart. axis [1,1,0]        

 cryst.   s( 5) = (     0         -1          0      )    f =( -0.2500000 )
                  (    -1          0          0      )       ( -0.2500000 )
                  (     0          0         -1      )       ( -0.2500000 )

 cart.    s( 5) = (  0.0000000  1.0000000  0.0000000 )    f =(  0.2500000 )
                  (  1.0000000  0.0000000  0.0000000 )       ( -0.2500000 )
                  (  0.0000000  0.0000000 -1.0000000 )       ( -0.2500000 )


      isym =  6     180 deg rotation - cart. axis [1,-1,0]       

 cryst.   s( 6) = (    -1          0          1      )    f =( -0.2500000 )
                  (     0         -1          1      )       ( -0.2500000 )
                  (     0          0          1      )       ( -0.2500000 )

 cart.    s( 6) = (  0.0000000 -1.0000000  0.0000000 )    f =(  0.2500000 )
                  ( -1.0000000  0.0000000  0.0000000 )       ( -0.2500000 )
                  (  0.0000000  0.0000000 -1.0000000 )       ( -0.2500000 )


      isym =  7      90 deg rotation - cart. axis [0,0,-1]       

 cryst.   s( 7) = (     0          1          0      )    f =( -0.2500000 )
                  (     0          1         -1      )       ( -0.2500000 )
                  (    -1          1          0      )       ( -0.2500000 )

 cart.    s( 7) = (  0.0000000  1.0000000  0.0000000 )    f =(  0.2500000 )
                  ( -1.0000000  0.0000000  0.0000000 )       ( -0.2500000 )
                  (  0.0000000  0.0000000  1.0000000 )       ( -0.2500000 )


      isym =  8      90 deg rotation - cart. axis [0,0,1]        

 cryst.   s( 8) = (     1          0         -1      )    f =( -0.2500000 )
                  (     1          0          0      )       ( -0.2500000 )
                  (     1         -1          0      )       ( -0.2500000 )

 cart.    s( 8) = (  0.0000000 -1.0000000  0.0000000 )    f =(  0.2500000 )
                  (  1.0000000  0.0000000  0.0000000 )       ( -0.2500000 )
                  (  0.0000000  0.0000000  1.0000000 )       ( -0.2500000 )


      isym =  9     180 deg rotation - cart. axis [1,0,1]        

 cryst.   s( 9) = (    -1          0          0      )    f =( -0.2500000 )
                  (     0          0         -1      )       ( -0.2500000 )
                  (     0         -1          0      )       ( -0.2500000 )

 cart.    s( 9) = (  0.0000000  0.0000000  1.0000000 )    f =(  0.2500000 )
                  (  0.0000000 -1.0000000  0.0000000 )       ( -0.2500000 )
                  (  1.0000000  0.0000000  0.0000000 )       ( -0.2500000 )


      isym = 10     180 deg rotation - cart. axis [-1,0,1]       

 cryst.   s(10) = (     1          0          0      )    f =( -0.2500000 )
                  (     1         -1          0      )       ( -0.2500000 )
                  (     1          0         -1      )       ( -0.2500000 )

 cart.    s(10) = (  0.0000000  0.0000000 -1.0000000 )    f =(  0.2500000 )
                  (  0.0000000 -1.0000000  0.0000000 )       ( -0.2500000 )
                  ( -1.0000000  0.0000000  0.0000000 )       ( -0.2500000 )


      isym = 11      90 deg rotation - cart. axis [0,1,0]        

 cryst.   s(11) = (     0          1         -1      )    f =( -0.2500000 )
                  (    -1          1          0      )       ( -0.2500000 )
                  (     0          1          0      )       ( -0.2500000 )

 cart.    s(11) = (  0.0000000  0.0000000  1.0000000 )    f =(  0.2500000 )
                  (  0.0000000  1.0000000  0.0000000 )       ( -0.2500000 )
                  ( -1.0000000  0.0000000  0.0000000 )       ( -0.2500000 )


      isym = 12      90 deg rotation - cart. axis [0,-1,0]       

 cryst.   s(12) = (     0         -1          1      )    f =( -0.2500000 )
                  (     0          0          1      )       ( -0.2500000 )
                  (    -1          0          1      )       ( -0.2500000 )

 cart.    s(12) = (  0.0000000  0.0000000 -1.0000000 )    f =(  0.2500000 )
                  (  0.0000000  1.0000000  0.0000000 )       ( -0.2500000 )
                  (  1.0000000  0.0000000  0.0000000 )       ( -0.2500000 )


      isym = 13     180 deg rotation - cart. axis [0,1,1]        

 cryst.   s(13) = (    -1          1          0      )    f =( -0.2500000 )
                  (     0          1          0      )       ( -0.2500000 )
                  (     0          1         -1      )       ( -0.2500000 )

 cart.    s(13) = ( -1.0000000  0.0000000  0.0000000 )    f =(  0.2500000 )
                  (  0.0000000  0.0000000  1.0000000 )       ( -0.2500000 )
                  (  0.0000000  1.0000000  0.0000000 )       ( -0.2500000 )


      isym = 14     180 deg rotation - cart. axis [0,1,-1]       

 cryst.   s(14) = (     0          0         -1      )    f =( -0.2500000 )
                  (     0         -1          0      )       ( -0.2500000 )
                  (    -1          0          0      )       ( -0.2500000 )

 cart.    s(14) = ( -1.0000000  0.0000000  0.0000000 )    f =(  0.2500000 )
                  (  0.0000000  0.0000000 -1.0000000 )       ( -0.2500000 )
                  (  0.0000000 -1.0000000  0.0000000 )       ( -0.2500000 )


      isym = 15      90 deg rotation - cart. axis [-1,0,0]       

 cryst.   s(15) = (     0          0          1      )    f =( -0.2500000 )
                  (    -1          0          1      )       ( -0.2500000 )
                  (     0         -1          1      )       ( -0.2500000 )

 cart.    s(15) = (  1.0000000  0.0000000  0.0000000 )    f =(  0.2500000 )
                  (  0.0000000  0.0000000  1.0000000 )       ( -0.2500000 )
                  (  0.0000000 -1.0000000  0.0000000 )       ( -0.2500000 )


      isym = 16      90 deg rotation - cart. axis [1,0,0]        

 cryst.   s(16) = (     1         -1          0      )    f =( -0.2500000 )
                  (     1          0         -1      )       ( -0.2500000 )
                  (     1          0          0      )       ( -0.2500000 )

 cart.    s(16) = (  1.0000000  0.0000000  0.0000000 )    f =(  0.2500000 )
                  (  0.0000000  0.0000000 -1.0000000 )       ( -0.2500000 )
                  (  0.0000000  1.0000000  0.0000000 )       ( -0.2500000 )


      isym = 17     120 deg rotation - cart. axis [-1,-1,-1]     

 cryst.   s(17) = (    -1          0          1      )
                  (    -1          1          0      )
                  (    -1          0          0      )

 cart.    s(17) = (  0.0000000  1.0000000  0.0000000 )
                  (  0.0000000  0.0000000  1.0000000 )
                  (  1.0000000  0.0000000  0.0000000 )


      isym = 18     120 deg rotation - cart. axis [-1,1,1]       

 cryst.   s(18) = (     0          1          0      )
                  (     0          0          1      )
                  (     1          0          0      )

 cart.    s(18) = (  0.0000000 -1.0000000  0.0000000 )
                  (  0.0000000  0.0000000  1.0000000 )
                  ( -1.0000000  0.0000000  0.0000000 )


      isym = 19     120 deg rotation - cart. axis [1,1,-1]       

 cryst.   s(19) = (     1          0         -1      )
                  (     0          0         -1      )
                  (     0          1         -1      )

 cart.    s(19) = (  0.0000000  1.0000000  0.0000000 )
                  (  0.0000000  0.0000000 -1.0000000 )
                  ( -1.0000000  0.0000000  0.0000000 )


      isym = 20     120 deg rotation - cart. axis [1,-1,1]       

 cryst.   s(20) = (     0         -1          0      )
                  (     1         -1          0      )
                  (     0         -1          1      )

 cart.    s(20) = (  0.0000000 -1.0000000  0.0000000 )
                  (  0.0000000  0.0000000 -1.0000000 )
                  (  1.0000000  0.0000000  0.0000000 )


      isym = 21     120 deg rotation - cart. axis [1,1,1]        

 cryst.   s(21) = (     0          0         -1      )
                  (     0          1         -1      )
                  (     1          0         -1      )

 cart.    s(21) = (  0.0000000  0.0000000  1.0000000 )
                  (  1.0000000  0.0000000  0.0000000 )
                  (  0.0000000  1.0000000  0.0000000 )


      isym = 22     120 deg rotation - cart. axis [-1,1,-1]      

 cryst.   s(22) = (    -1          1          0      )
                  (    -1          0          0      )
                  (    -1          0          1      )

 cart.    s(22) = (  0.0000000  0.0000000  1.0000000 )
                  ( -1.0000000  0.0000000  0.0000000 )
                  (  0.0000000 -1.0000000  0.0000000 )


      isym = 23     120 deg rotation - cart. axis [1,-1,-1]      

 cryst.   s(23) = (     0          0          1      )
                  (     1          0          0      )
                  (     0          1          0      )

 cart.    s(23) = (  0.0000000  0.0000000 -1.0000000 )
                  ( -1.0000000  0.0000000  0.0000000 )
                  (  0.0000000  1.0000000  0.0000000 )


      isym = 24     120 deg rotation - cart. axis [-1,-1,1]      

 cryst.   s(24) = (     1         -1          0      )
                  (     0         -1          1      )
                  (     0         -1          0      )

 cart.    s(24) = (  0.0000000  0.0000000 -1.0000000 )
                  (  1.0000000  0.0000000  0.0000000 )
                  (  0.0000000 -1.0000000  0.0000000 )


      isym = 25     inversion                                    

 cryst.   s(25) = (    -1          0          0      )    f =( -0.2500000 )
                  (     0         -1          0      )       ( -0.2500000 )
                  (     0          0         -1      )       ( -0.2500000 )

 cart.    s(25) = ( -1.0000000  0.0000000  0.0000000 )    f =(  0.2500000 )
                  (  0.0000000 -1.0000000  0.0000000 )       ( -0.2500000 )
                  (  0.0000000  0.0000000 -1.0000000 )       ( -0.2500000 )


      isym = 26     inv. 180 deg rotation - cart. axis [0,0,1]   

 cryst.   s(26) = (     0         -1          1      )    f =( -0.2500000 )
                  (    -1          0          1      )       ( -0.2500000 )
                  (     0          0          1      )       ( -0.2500000 )

 cart.    s(26) = (  1.0000000  0.0000000  0.0000000 )    f =(  0.2500000 )
                  (  0.0000000  1.0000000  0.0000000 )       ( -0.2500000 )
                  (  0.0000000  0.0000000 -1.0000000 )       ( -0.2500000 )


      isym = 27     inv. 180 deg rotation - cart. axis [0,1,0]   

 cryst.   s(27) = (     1          0          0      )    f =( -0.2500000 )
                  (     1          0         -1      )       ( -0.2500000 )
                  (     1         -1          0      )       ( -0.2500000 )

 cart.    s(27) = (  1.0000000  0.0000000  0.0000000 )    f =(  0.2500000 )
                  (  0.0000000 -1.0000000  0.0000000 )       ( -0.2500000 )
                  (  0.0000000  0.0000000  1.0000000 )       ( -0.2500000 )


      isym = 28     inv. 180 deg rotation - cart. axis [1,0,0]   

 cryst.   s(28) = (     0          1         -1      )    f =( -0.2500000 )
                  (     0          1          0      )       ( -0.2500000 )
                  (    -1          1          0      )       ( -0.2500000 )

 cart.    s(28) = ( -1.0000000  0.0000000  0.0000000 )    f =(  0.2500000 )
                  (  0.0000000  1.0000000  0.0000000 )       ( -0.2500000 )
                  (  0.0000000  0.0000000  1.0000000 )       ( -0.2500000 )


      isym = 29     inv. 180 deg rotation - cart. axis [1,1,0]   

 cryst.   s(29) = (     0          1          0      )
                  (     1          0          0      )
                  (     0          0          1      )

 cart.    s(29) = (  0.0000000 -1.0000000  0.0000000 )
                  ( -1.0000000  0.0000000  0.0000000 )
                  (  0.0000000  0.0000000  1.0000000 )


      isym = 30     inv. 180 deg rotation - cart. axis [1,-1,0]  

 cryst.   s(30) = (     1          0         -1      )
                  (     0          1         -1      )
                  (     0          0         -1      )

 cart.    s(30) = (  0.0000000  1.0000000  0.0000000 )
                  (  1.0000000  0.0000000  0.0000000 )
                  (  0.0000000  0.0000000  1.0000000 )


      isym = 31     inv.  90 deg rotation - cart. axis [0,0,-1]  

 cryst.   s(31) = (     0         -1          0      )
                  (     0         -1          1      )
                  (     1         -1          0      )

 cart.    s(31) = (  0.0000000 -1.0000000  0.0000000 )
                  (  1.0000000  0.0000000  0.0000000 )
                  (  0.0000000  0.0000000 -1.0000000 )


      isym = 32     inv.  90 deg rotation - cart. axis [0,0,1]   

 cryst.   s(32) = (    -1          0          1      )
                  (    -1          0          0      )
                  (    -1          1          0      )

 cart.    s(32) = (  0.0000000  1.0000000  0.0000000 )
                  ( -1.0000000  0.0000000  0.0000000 )
                  (  0.0000000  0.0000000 -1.0000000 )


      isym = 33     inv. 180 deg rotation - cart. axis [1,0,1]   

 cryst.   s(33) = (     1          0          0      )
                  (     0          0          1      )
                  (     0          1          0      )

 cart.    s(33) = (  0.0000000  0.0000000 -1.0000000 )
                  (  0.0000000  1.0000000  0.0000000 )
                  ( -1.0000000  0.0000000  0.0000000 )


      isym = 34     inv. 180 deg rotation - cart. axis [-1,0,1]  

 cryst.   s(34) = (    -1          0          0      )
                  (    -1          1          0      )
                  (    -1          0          1      )

 cart.    s(34) = (  0.0000000  0.0000000  1.0000000 )
                  (  0.0000000  1.0000000  0.0000000 )
                  (  1.0000000  0.0000000  0.0000000 )


      isym = 35     inv.  90 deg rotation - cart. axis [0,1,0]   

 cryst.   s(35) = (     0         -1          1      )
                  (     1         -1          0      )
                  (     0         -1          0      )

 cart.    s(35) = (  0.0000000  0.0000000 -1.0000000 )
                  (  0.0000000 -1.0000000  0.0000000 )
                  (  1.0000000  0.0000000  0.0000000 )


      isym = 36     inv.  90 deg rotation - cart. axis [0,-1,0]  

 cryst.   s(36) = (     0          1         -1      )
                  (     0          0         -1      )
                  (     1          0         -1      )

 cart.    s(36) = (  0.0000000  0.0000000  1.0000000 )
                  (  0.0000000 -1.0000000  0.0000000 )
                  ( -1.0000000  0.0000000  0.0000000 )


      isym = 37     inv. 180 deg rotation - cart. axis [0,1,1]   

 cryst.   s(37) = (     1         -1          0      )
                  (     0         -1          0      )
                  (     0         -1          1      )

 cart.    s(37) = (  1.0000000  0.0000000  0.0000000 )
                  (  0.0000000  0.0000000 -1.0000000 )
                  (  0.0000000 -1.0000000  0.0000000 )


      isym = 38     inv. 180 deg rotation - cart. axis [0,1,-1]  

 cryst.   s(38) = (     0          0          1      )
                  (     0          1          0      )
                  (     1          0          0      )

 cart.    s(38) = (  1.0000000  0.0000000  0.0000000 )
                  (  0.0000000  0.0000000  1.0000000 )
                  (  0.0000000  1.0000000  0.0000000 )


      isym = 39     inv.  90 deg rotation - cart. axis [-1,0,0]  

 cryst.   s(39) = (     0          0         -1      )
                  (     1          0         -1      )
                  (     0          1         -1      )

 cart.    s(39) = ( -1.0000000  0.0000000  0.0000000 )
                  (  0.0000000  0.0000000 -1.0000000 )
                  (  0.0000000  1.0000000  0.0000000 )


      isym = 40     inv.  90 deg rotation - cart. axis [1,0,0]   

 cryst.   s(40) = (    -1          1          0      )
                  (    -1          0          1      )
                  (    -1          0          0      )

 cart.    s(40) = ( -1.0000000  0.0000000  0.0000000 )
                  (  0.0000000  0.0000000  1.0000000 )
                  (  0.0000000 -1.0000000  0.0000000 )


      isym = 41     inv. 120 deg rotation - cart. axis [-1,-1,-1]

 cryst.   s(41) = (     1          0         -1      )    f =( -0.2500000 )
                  (     1         -1          0      )       ( -0.2500000 )
                  (     1          0          0      )       ( -0.2500000 )

 cart.    s(41) = (  0.0000000 -1.0000000  0.0000000 )    f =(  0.2500000 )
                  (  0.0000000  0.0000000 -1.0000000 )       ( -0.2500000 )
                  ( -1.0000000  0.0000000  0.0000000 )       ( -0.2500000 )


      isym = 42     inv. 120 deg rotation - cart. axis [-1,1,1]  

 cryst.   s(42) = (     0         -1          0      )    f =( -0.2500000 )
                  (     0          0         -1      )       ( -0.2500000 )
                  (    -1          0          0      )       ( -0.2500000 )

 cart.    s(42) = (  0.0000000  1.0000000  0.0000000 )    f =(  0.2500000 )
                  (  0.0000000  0.0000000 -1.0000000 )       ( -0.2500000 )
                  (  1.0000000  0.0000000  0.0000000 )       ( -0.2500000 )


      isym = 43     inv. 120 deg rotation - cart. axis [1,1,-1]  

 cryst.   s(43) = (    -1          0          1      )    f =( -0.2500000 )
                  (     0          0          1      )       ( -0.2500000 )
                  (     0         -1          1      )       ( -0.2500000 )

 cart.    s(43) = (  0.0000000 -1.0000000  0.0000000 )    f =(  0.2500000 )
                  (  0.0000000  0.0000000  1.0000000 )       ( -0.2500000 )
                  (  1.0000000  0.0000000  0.0000000 )       ( -0.2500000 )


      isym = 44     inv. 120 deg rotation - cart. axis [1,-1,1]  

 cryst.   s(44) = (     0          1          0      )    f =( -0.2500000 )
                  (    -1          1          0      )       ( -0.2500000 )
                  (     0          1         -1      )       ( -0.2500000 )

 cart.    s(44) = (  0.0000000  1.0000000  0.0000000 )    f =(  0.2500000 )
                  (  0.0000000  0.0000000  1.0000000 )       ( -0.2500000 )
                  ( -1.0000000  0.0000000  0.0000000 )       ( -0.2500000 )


      isym = 45     inv. 120 deg rotation - cart. axis [1,1,1]   

 cryst.   s(45) = (     0          0          1      )    f =( -0.2500000 )
                  (     0         -1          1      )       ( -0.2500000 )
                  (    -1          0          1      )       ( -0.2500000 )

 cart.    s(45) = (  0.0000000  0.0000000 -1.0000000 )    f =(  0.2500000 )
                  ( -1.0000000  0.0000000  0.0000000 )       ( -0.2500000 )
                  (  0.0000000 -1.0000000  0.0000000 )       ( -0.2500000 )


      isym = 46     inv. 120 deg rotation - cart. axis [-1,1,-1] 

 cryst.   s(46) = (     1         -1          0      )    f =( -0.2500000 )
                  (     1          0          0      )       ( -0.2500000 )
                  (     1          0         -1      )       ( -0.2500000 )

 cart.    s(46) = (  0.0000000  0.0000000 -1.0000000 )    f =(  0.2500000 )
                  (  1.0000000  0.0000000  0.0000000 )       ( -0.2500000 )
                  (  0.0000000  1.0000000  0.0000000 )       ( -0.2500000 )


      isym = 47     inv. 120 deg rotation - cart. axis [1,-1,-1] 

 cryst.   s(47) = (     0          0         -1      )    f =( -0.2500000 )
                  (    -1          0          0      )       ( -0.2500000 )
                  (     0         -1          0      )       ( -0.2500000 )

 cart.    s(47) = (  0.0000000  0.0000000  1.0000000 )    f =(  0.2500000 )
                  (  1.0000000  0.0000000  0.0000000 )       ( -0.2500000 )
                  (  0.0000000 -1.0000000  0.0000000 )       ( -0.2500000 )


      isym = 48     inv. 120 deg rotation - cart. axis [-1,-1,1] 

 cryst.   s(48) = (    -1          1          0      )    f =( -0.2500000 )
                  (     0          1         -1      )       ( -0.2500000 )
                  (     0          1          0      )       ( -0.2500000 )

 cart.    s(48) = (  0.0000000  0.0000000  1.0000000 )    f =(  0.2500000 )
                  ( -1.0000000  0.0000000  0.0000000 )       ( -0.2500000 )
                  (  0.0000000  1.0000000  0.0000000 )       ( -0.2500000 )


     point group O_h (m-3m) 
     there are 10 classes
     the character table:

       E     8C3   3C2   6C4   6C2'  i     8S6   3s_h  6S4   6s_d 
A_1g   1.00  1.00  1.00  1.00  1.00  1.00  1.00  1.00  1.00  1.00
A_2g   1.00  1.00  1.00 -1.00 -1.00  1.00  1.00  1.00 -1.00 -1.00
E_g    2.00 -1.00  2.00  0.00  0.00  2.00 -1.00  2.00  0.00  0.00
T_1g   3.00  0.00 -1.00  1.00 -1.00  3.00  0.00 -1.00  1.00 -1.00
T_2g   3.00  0.00 -1.00 -1.00  1.00  3.00  0.00 -1.00 -1.00  1.00
A_1u   1.00  1.00  1.00  1.00  1.00 -1.00 -1.00 -1.00 -1.00 -1.00
A_2u   1.00  1.00  1.00 -1.00 -1.00 -1.00 -1.00 -1.00  1.00  1.00
E_u    2.00 -1.00  2.00  0.00  0.00 -2.00  1.00 -2.00  0.00  0.00
T_1u   3.00  0.00 -1.00  1.00 -1.00 -3.00  0.00  1.00 -1.00  1.00
T_2u   3.00  0.00 -1.00 -1.00  1.00 -3.00  0.00  1.00  1.00 -1.00

     the symmetry operations in each class and the name of the first element:

     E        1
          identity                                               
     8C3     17   19   20   18   24   21   22   23
          120 deg rotation - cart. axis [-1,-1,-1]               
     3C2      2    4    3
          180 deg rotation - cart. axis [0,0,1]                  
     6C4      7    8   15   16   12   11
           90 deg rotation - cart. axis [0,0,-1]                 
     6C2'     5    6   14   13   10    9
          180 deg rotation - cart. axis [1,1,0]                  
     i       25
          inversion                                              
     8S6     41   43   44   42   48   45   46   47
          inv. 120 deg rotation - cart. axis [-1,-1,-1]          
     3s_h    26   28   27
          inv. 180 deg rotation - cart. axis [0,0,1]             
     6S4     31   32   39   40   36   35
          inv.  90 deg rotation - cart. axis [0,0,-1]            
     6s_d    29   30   38   37   34   33
          inv. 180 deg rotation - cart. axis [1,1,0]             

   Cartesian axes

     site n.     atom                  positions (alat units)
         1        Si     tau(   1) = (   0.0000000   0.0000000   0.0000000  )
         2        Si     tau(   2) = (  -0.2500000   0.2500000   0.2500000  )

   Crystallographic axes

     site n.     atom                  positions (cryst. coord.)
         1        Si     tau(   1) = (  0.0000000  0.0000000  0.0000000  )
         2        Si     tau(   2) = (  0.2500000  0.2500000  0.2500000  )

     number of k points=    28
                       cart. coord. in units 2pi/alat
        k(    1) = (  -0.0833333   0.0833333   0.0833333), wk =   0.0185185
        k(    2) = (  -0.2500000   0.2500000  -0.0833333), wk =   0.0555556
        k(    3) = (  -0.4166667   0.4166667  -0.2500000), wk =   0.0555556
        k(    4) = (   0.4166667  -0.4166667   0.5833333), wk =   0.0555556
        k(    5) = (   0.2500000  -0.2500000   0.4166667), wk =   0.0555556
        k(    6) = (   0.0833333  -0.0833333   0.2500000), wk =   0.0555556
        k(    7) = (  -0.0833333   0.4166667   0.0833333), wk =   0.0555556
        k(    8) = (  -0.2500000   0.5833333  -0.0833333), wk =   0.1111111
        k(    9) = (   0.5833333  -0.2500000   0.7500000), wk =   0.1111111
        k(   10) = (   0.4166667  -0.0833333   0.5833333), wk =   0.1111111
        k(   11) = (   0.2500000   0.0833333   0.4166667), wk =   0.1111111
        k(   12) = (  -0.0833333   0.7500000   0.0833333), wk =   0.0555556
        k(   13) = (   0.7500000  -0.0833333   0.9166667), wk =   0.1111111
        k(   14) = (   0.5833333   0.0833333   0.7500000), wk =   0.1111111
        k(   15) = (   0.4166667   0.2500000   0.5833333), wk =   0.1111111
        k(   16) = (  -0.0833333  -0.9166667   0.0833333), wk =   0.0555556
        k(   17) = (  -0.2500000  -0.7500000  -0.0833333), wk =   0.1111111
        k(   18) = (  -0.0833333  -0.5833333   0.0833333), wk =   0.0555556
        k(   19) = (  -0.2500000   0.2500000   0.2500000), wk =   0.0185185
        k(   20) = (  -0.4166667   0.4166667   0.0833333), wk =   0.0555556
        k(   21) = (   0.4166667  -0.4166667   0.9166667), wk =   0.0555556
        k(   22) = (   0.2500000  -0.2500000   0.7500000), wk =   0.0555556
        k(   23) = (  -0.2500000   0.5833333   0.2500000), wk =   0.0555556
        k(   24) = (   0.5833333  -0.2500000   1.0833333), wk =   0.1111111
        k(   25) = (   0.4166667  -0.0833333   0.9166667), wk =   0.1111111
        k(   26) = (  -0.2500000  -1.0833333   0.2500000), wk =   0.0555556
        k(   27) = (  -0.4166667   0.4166667   0.4166667), wk =   0.0185185
        k(   28) = (   0.4166667  -0.4166667   1.2500000), wk =   0.0555556

                       cryst. coord.
        k(    1) = (   0.0833333   0.0833333   0.0833333), wk =   0.0185185
        k(    2) = (   0.0833333   0.0833333   0.2500000), wk =   0.0555556
        k(    3) = (   0.0833333   0.0833333   0.4166667), wk =   0.0555556
        k(    4) = (   0.0833333   0.0833333  -0.4166667), wk =   0.0555556
        k(    5) = (   0.0833333   0.0833333  -0.2500000), wk =   0.0555556
        k(    6) = (   0.0833333   0.0833333  -0.0833333), wk =   0.0555556
        k(    7) = (   0.0833333   0.2500000   0.2500000), wk =   0.0555556
        k(    8) = (   0.0833333   0.2500000   0.4166667), wk =   0.1111111
        k(    9) = (   0.0833333   0.2500000  -0.4166667), wk =   0.1111111
        k(   10) = (   0.0833333   0.2500000  -0.2500000), wk =   0.1111111
        k(   11) = (   0.0833333   0.2500000  -0.0833333), wk =   0.1111111
        k(   12) = (   0.0833333   0.4166667   0.4166667), wk =   0.0555556
        k(   13) = (   0.0833333   0.4166667  -0.4166667), wk =   0.1111111
        k(   14) = (   0.0833333   0.4166667  -0.2500000), wk =   0.1111111
        k(   15) = (   0.0833333   0.4166667  -0.0833333), wk =   0.1111111
        k(   16) = (   0.0833333  -0.4166667  -0.4166667), wk =   0.0555556
        k(   17) = (   0.0833333  -0.4166667  -0.2500000), wk =   0.1111111
        k(   18) = (   0.0833333  -0.2500000  -0.2500000), wk =   0.0555556
        k(   19) = (   0.2500000   0.2500000   0.2500000), wk =   0.0185185
        k(   20) = (   0.2500000   0.2500000   0.4166667), wk =   0.0555556
        k(   21) = (   0.2500000   0.2500000  -0.4166667), wk =   0.0555556
        k(   22) = (   0.2500000   0.2500000  -0.2500000), wk =   0.0555556
        k(   23) = (   0.2500000   0.4166667   0.4166667), wk =   0.0555556
        k(   24) = (   0.2500000   0.4166667  -0.4166667), wk =   0.1111111
        k(   25) = (   0.2500000   0.4166667  -0.2500000), wk =   0.1111111
        k(   26) = (   0.2500000  -0.4166667  -0.4166667), wk =   0.0555556
        k(   27) = (   0.4166667   0.4166667   0.4166667), wk =   0.0185185
        k(   28) = (   0.4166667   0.4166667  -0.4166667), wk =   0.0555556

     Dense  grid:    36325 G-vectors     FFT dimensions: (  48,  48,  48)

     Smooth grid:    12939 G-vectors     FFT dimensions: (  36,  36,  36)

     Dynamical RAM for                 wfc:       0.02 MB

     Dynamical RAM for     wfc (w. buffer):       0.47 MB

     Dynamical RAM for           str. fact:       0.09 MB

     Dynamical RAM for           local pot:       0.00 MB

     Dynamical RAM for          nlocal pot:       0.15 MB

     Dynamical RAM for                qrad:       3.21 MB

     Dynamical RAM for          rho,v,vnew:       0.70 MB

     Dynamical RAM for               rhoin:       0.23 MB

     Dynamical RAM for            rho*nmix:       1.48 MB

     Dynamical RAM for           G-vectors:       0.36 MB

     Dynamical RAM for          h,s,v(r/c):       0.00 MB

     Dynamical RAM for          <psi|beta>:       0.00 MB

     Dynamical RAM for                 psi:       0.03 MB

     Dynamical RAM for                hpsi:       0.03 MB

     Dynamical RAM for                spsi:       0.03 MB

     Dynamical RAM for      wfcinit/wfcrot:       0.03 MB

     Dynamical RAM for           addusdens:      17.37 MB

     Dynamical RAM for          addusforce:      17.61 MB

     Dynamical RAM for         addusstress:      18.57 MB

     Estimated static dynamical RAM per process >       6.11 MB

     Estimated max dynamical RAM per process >      26.15 MB

     Estimated total dynamical RAM >     156.92 MB

     Initial potential from superposition of free atoms

     starting charge       7.9989, renormalised to       8.0000
     Starting wfcs are    8 randomized atomic wfcs
     Checking if some PAW data can be deallocated... 

     total cpu time spent up to now is        0.6 secs

     Self-consistent Calculation

     iteration #  1     ecut=    50.00 Ry     beta= 0.70
     Davidson diagonalization with overlap

---- Real-time Memory Report at c_bands before calling an iterative solver
            56 MiB given to the printing process from OS
             0 MiB allocation reported by mallinfo(arena+hblkhd)
         10307 MiB available memory on the node where the printing process lives
------------------
     ethr =  1.00E-02,  avg # of iterations =  2.0

     Threshold (ethr) on eigenvalues was too large:
     Diagonalizing with lowered threshold

     Davidson diagonalization with overlap

---- Real-time Memory Report at c_bands before calling an iterative solver
            59 MiB given to the printing process from OS
             0 MiB allocation reported by mallinfo(arena+hblkhd)
         10291 MiB available memory on the node where the printing process lives
------------------
     ethr =  6.22E-04,  avg # of iterations =  1.5

     total cpu time spent up to now is        0.8 secs

     total energy              =     -93.45041600 Ry
     estimated scf accuracy    <       0.05391880 Ry

     iteration #  2     ecut=    50.00 Ry     beta= 0.70
     Davidson diagonalization with overlap

---- Real-time Memory Report at c_bands before calling an iterative solver
            59 MiB given to the printing process from OS
             0 MiB allocation reported by mallinfo(arena+hblkhd)
         10290 MiB available memory on the node where the printing process lives
------------------
     ethr =  6.74E-04,  avg # of iterations =  1.0

     total cpu time spent up to now is        1.0 secs

     total energy              =     -93.45236498 Ry
     estimated scf accuracy    <       0.00282803 Ry

     iteration #  3     ecut=    50.00 Ry     beta= 0.70
     Davidson diagonalization with overlap

---- Real-time Memory Report at c_bands before calling an iterative solver
            59 MiB given to the printing process from OS
             0 MiB allocation reported by mallinfo(arena+hblkhd)
         10290 MiB available memory on the node where the printing process lives
------------------
     ethr =  3.54E-05,  avg # of iterations =  3.0

     total cpu time spent up to now is        1.2 secs

     total energy              =     -93.45316407 Ry
     estimated scf accuracy    <       0.00011071 Ry

     iteration #  4     ecut=    50.00 Ry     beta= 0.70
     Davidson diagonalization with overlap

---- Real-time Memory Report at c_bands before calling an iterative solver
            59 MiB given to the printing process from OS
             0 MiB allocation reported by mallinfo(arena+hblkhd)
         10291 MiB available memory on the node where the printing process lives
------------------
     ethr =  1.38E-06,  avg # of iterations =  3.6

     total cpu time spent up to now is        1.4 secs

     total energy              =     -93.45322850 Ry
     estimated scf accuracy    <       0.00001518 Ry

     iteration #  5     ecut=    50.00 Ry     beta= 0.70
     Davidson diagonalization with overlap

---- Real-time Memory Report at c_bands before calling an iterative solver
            59 MiB given to the printing process from OS
             0 MiB allocation reported by mallinfo(arena+hblkhd)
         10289 MiB available memory on the node where the printing process lives
------------------
     ethr =  1.90E-07,  avg # of iterations =  3.2

     total cpu time spent up to now is        1.6 secs

     total energy              =     -93.45323488 Ry
     estimated scf accuracy    <       0.00000036 Ry

     iteration #  6     ecut=    50.00 Ry     beta= 0.70
     Davidson diagonalization with overlap

---- Real-time Memory Report at c_bands before calling an iterative solver
            59 MiB given to the printing process from OS
             0 MiB allocation reported by mallinfo(arena+hblkhd)
         10290 MiB available memory on the node where the printing process lives
------------------
     ethr =  4.46E-09,  avg # of iterations =  5.8

     total cpu time spent up to now is        1.8 secs

     total energy              =     -93.45323539 Ry
     estimated scf accuracy    <       0.00000010 Ry

     iteration #  7     ecut=    50.00 Ry     beta= 0.70
     Davidson diagonalization with overlap

---- Real-time Memory Report at c_bands before calling an iterative solver
            59 MiB given to the printing process from OS
             0 MiB allocation reported by mallinfo(arena+hblkhd)
         10289 MiB available memory on the node where the printing process lives
------------------
     ethr =  1.23E-09,  avg # of iterations =  2.4

     total cpu time spent up to now is        2.0 secs

     End of self-consistent calculation

          k =-0.0833 0.0833 0.0833 (  1606 PWs)   bands (ev):

    -5.6673   5.3505   6.0660   6.0660

     occupation numbers 
     1.0000   1.0000   1.0000   1.0000

          k =-0.2500 0.2500-0.0833 (  1600 PWs)   bands (ev):

    -5.1888   3.2649   4.8226   5.8560

     occupation numbers 
     1.0000   1.0000   1.0000   1.0000

          k =-0.4167 0.4167-0.2500 (  1611 PWs)   bands (ev):

    -4.0916   0.4894   4.3586   5.2158

     occupation numbers 
     1.0000   1.0000   1.0000   1.0000

          k = 0.4167-0.4167 0.5833 (  1613 PWs)   bands (ev):

    -3.3884  -0.6616   4.4270   4.8326

     occupation numbers 
     1.0000   1.0000   1.0000   1.0000

          k = 0.2500-0.2500 0.4167 (  1606 PWs)   bands (ev):

    -4.5055   1.3402   4.8914   4.9289

     occupation numbers 
     1.0000   1.0000   1.0000   1.0000

          k = 0.0833-0.0833 0.2500 (  1599 PWs)   bands (ev):

    -5.4258   4.2810   5.4149   5.6061

     occupation numbers 
     1.0000   1.0000   1.0000   1.0000

          k =-0.0833 0.4167 0.0833 (  1612 PWs)   bands (ev):

    -4.9468   3.0823   4.6682   4.6808

     occupation numbers 
     1.0000   1.0000   1.0000   1.0000

          k =-0.2500 0.5833-0.0833 (  1611 PWs)   bands (ev):

    -4.0326   1.2357   3.3405   4.2926

     occupation numbers 
     1.0000   1.0000   1.0000   1.0000

          k = 0.5833-0.2500 0.7500 (  1607 PWs)   bands (ev):

    -2.9094  -0.5272   2.7380   4.0633

     occupation numbers 
     1.0000   1.0000   1.0000   1.0000

          k = 0.4167-0.0833 0.5833 (  1608 PWs)   bands (ev):

    -3.6360   0.5383   2.6933   4.5537

     occupation numbers 
     1.0000   1.0000   1.0000   1.0000

          k = 0.2500 0.0833 0.4167 (  1607 PWs)   bands (ev):

    -4.7204   2.2386   4.0417   5.2275

     occupation numbers 
     1.0000   1.0000   1.0000   1.0000

          k =-0.0833 0.7500 0.0833 (  1618 PWs)   bands (ev):

    -3.3183   0.4092   3.3037   3.6472

     occupation numbers 
     1.0000   1.0000   1.0000   1.0000

          k = 0.7500-0.0833 0.9167 (  1620 PWs)   bands (ev):

    -2.1164  -0.9364   2.4546   3.2366

     occupation numbers 
     1.0000   1.0000   1.0000   1.0000

          k = 0.5833 0.0833 0.7500 (  1614 PWs)   bands (ev):

    -2.4876  -0.6026   1.9690   3.7856

     occupation numbers 
     1.0000   1.0000   1.0000   1.0000

          k = 0.4167 0.2500 0.5833 (  1612 PWs)   bands (ev):

    -3.5227  -0.1553   3.6451   4.6527

     occupation numbers 
     1.0000   1.0000   1.0000   1.0000

          k =-0.0833-0.9167 0.0833 (  1620 PWs)   bands (ev):

    -2.2094  -0.9449   3.0325   3.4310

     occupation numbers 
     1.0000   1.0000   1.0000   1.0000

          k =-0.2500-0.7500-0.0833 (  1621 PWs)   bands (ev):

    -3.1486   0.1841   2.7796   3.5787

     occupation numbers 
     1.0000   1.0000   1.0000   1.0000

          k =-0.0833-0.5833 0.0833 (  1617 PWs)   bands (ev):

    -4.2392   1.7797   3.8524   4.0714

     occupation numbers 
     1.0000   1.0000   1.0000   1.0000

          k =-0.2500 0.2500 0.2500 (  1618 PWs)   bands (ev):

    -4.9584   2.2798   5.4493   5.4493

     occupation numbers 
     1.0000   1.0000   1.0000   1.0000

          k =-0.4167 0.4167 0.0833 (  1613 PWs)   bands (ev):

    -4.2763   1.3471   3.3044   5.2799

     occupation numbers 
     1.0000   1.0000   1.0000   1.0000

          k = 0.4167-0.4167 0.9167 (  1607 PWs)   bands (ev):

    -3.0912  -0.0978   2.1899   4.4881

     occupation numbers 
     1.0000   1.0000   1.0000   1.0000

          k = 0.2500-0.2500 0.7500 (  1617 PWs)   bands (ev):

    -3.0391  -0.1772   2.6728   4.0028

     occupation numbers 
     1.0000   1.0000   1.0000   1.0000

          k =-0.2500 0.5833 0.2500 (  1610 PWs)   bands (ev):

    -3.8503   0.5346   3.7758   4.3780

     occupation numbers 
     1.0000   1.0000   1.0000   1.0000

          k = 0.5833-0.2500 1.0833 (  1611 PWs)   bands (ev):

    -2.8434  -0.2084   2.2901   3.5755

     occupation numbers 
     1.0000   1.0000   1.0000   1.0000

          k = 0.4167-0.0833 0.9167 (  1613 PWs)   bands (ev):

    -2.0082  -0.9442   2.1226   2.9031

     occupation numbers 
     1.0000   1.0000   1.0000   1.0000

          k =-0.2500-1.0833 0.2500 (  1620 PWs)   bands (ev):

    -2.2195  -0.8515   1.9956   3.8073

     occupation numbers 
     1.0000   1.0000   1.0000   1.0000

          k =-0.4167 0.4167 0.4167 (  1610 PWs)   bands (ev):

    -3.7602  -0.2591   5.0599   5.0599

     occupation numbers 
     1.0000   1.0000   1.0000   1.0000

          k = 0.4167-0.4167 1.2500 (  1602 PWs)   bands (ev):

    -3.1519  -0.5605   3.2167   4.6160

     occupation numbers 
     1.0000   1.0000   1.0000   1.0000

     highest occupied level (ev):     6.0660

!    total energy              =     -93.45323541 Ry
     total all-electron energy =     -1160.144965 Ry
     estimated scf accuracy    <          5.4E-09 Ry

     The total energy is the sum of the following terms:
     one-electron contribution =       5.74436470 Ry
     hartree contribution      =       1.09962718 Ry
     xc contribution           =     -12.30945888 Ry
     ewald contribution        =     -16.80092957 Ry
     one-center paw contrib.   =     -71.18683884 Ry
      -> PAW hartree energy AE =       2.97930307 Ry
      -> PAW hartree energy PS =      -2.96791479 Ry
      -> PAW xc energy AE      =     -40.87607445 Ry
      -> PAW xc energy PS      =       5.27126676 Ry
      -> total E_H with PAW    =       1.11101546 Ry
      -> total E_XC with PAW   =     -47.91426657 Ry

     convergence has been achieved in   7 iterations

     Forces acting on atoms (cartesian axes, Ry/au):

     atom    1 type  1   force =     0.00000000    0.00000000    0.00000000
     atom    2 type  1   force =     0.00000000    0.00000000    0.00000000
     The non-local contrib.  to forces
     atom    1 type  1   force =    -0.00000000    0.00000000   -0.00000000
     atom    2 type  1   force =    -0.00000000    0.00000000    0.00000000
     The ionic contribution  to forces
     atom    1 type  1   force =     0.00000000   -0.00000000   -0.00000000
     atom    2 type  1   force =    -0.00000000    0.00000000    0.00000000
     The local contribution  to forces
     atom    1 type  1   force =    -0.00000000    0.00000000    0.00000000
     atom    2 type  1   force =     0.00000000   -0.00000000   -0.00000000
     The core correction contribution to forces
     atom    1 type  1   force =    -0.00000000   -0.00000000   -0.00000000
     atom    2 type  1   force =     0.00000000    0.00000000    0.00000000
     The Hubbard contrib.    to forces
     atom    1 type  1   force =     0.00000000    0.00000000    0.00000000
     atom    2 type  1   force =     0.00000000    0.00000000    0.00000000
     The SCF correction term to forces
     atom    1 type  1   force =     0.00000000    0.00000000   -0.00000000
     atom    2 type  1   force =    -0.00000000   -0.00000000    0.00000000

     Total force =     0.000000     Total SCF correction =     0.000000


     Computing stress (Cartesian axis) and pressure

          total   stress  (Ry/bohr**3)                   (kbar)     P=       20.36
   0.00013839  -0.00000000  -0.00000000           20.36       -0.00       -0.00
  -0.00000000   0.00013839   0.00000000           -0.00       20.36        0.00
  -0.00000000   0.00000000   0.00013839           -0.00        0.00       20.36

     kinetic stress (kbar)   2211.45      0.00      0.00
                                0.00   2211.45     -0.00
                                0.00     -0.00   2211.45

     local   stress (kbar)     55.48      0.00     -0.00
                                0.00     55.48      0.00
                               -0.00      0.00     55.48

     nonloc. stress (kbar)   1605.44     -0.00     -0.00
                               -0.00   1605.44      0.00
                               -0.00      0.00   1605.44

     hartree stress (kbar)    199.70     -0.00     -0.00
                               -0.00    199.70      0.00
                               -0.00      0.00    199.70

     exc-cor stress (kbar)   2947.72     -0.00      0.00
                               -0.00   2947.72     -0.00
                                0.00     -0.00   2947.72

     corecor stress (kbar)  -3948.32     -0.00      0.00
                               -0.00  -3948.32     -0.00
                                0.00     -0.00  -3948.32

     ewald   stress (kbar)  -3051.11     -0.00     -0.00
                               -0.00  -3051.11      0.00
                               -0.00      0.00  -3051.11

     hubbard stress (kbar)      0.00      0.00      0.00
                                0.00      0.00      0.00
                                0.00      0.00      0.00

     DFT-D   stress (kbar)      0.00      0.00      0.00
                                0.00      0.00      0.00
                                0.00      0.00      0.00

     XDM     stress (kbar)      0.00      0.00      0.00
                                0.00      0.00      0.00
                                0.00      0.00      0.00

     dft-nl  stress (kbar)      0.00      0.00      0.00
                                0.00      0.00      0.00
                                0.00      0.00      0.00

     TS-vdW  stress (kbar)      0.00      0.00      0.00
                                0.00      0.00      0.00
                                0.00      0.00      0.00

     MDB     stress (kbar)      0.00      0.00      0.00
                                0.00      0.00      0.00
                                0.00      0.00      0.00

     3D-RISM stress (kbar)      0.00      0.00      0.00
                                0.00      0.00      0.00
                                0.00      0.00      0.00


     BFGS Geometry Optimization
     Energy error            =      3.9E-04 Ry
     Gradient error          =      0.0E+00 Ry/Bohr
     Cell gradient error     =      2.0E+01 kbar

     number of scf cycles    =   1
     number of bfgs steps    =   0

     enthalpy           new  =     -93.4532354072 Ry

     new trust radius        =       0.0113703172 bohr
     new conv_thr            =       0.0000000100 Ry

     new unit-cell volume =    272.82366 a.u.^3 (    40.42830 Ang^3 )
     density =      2.30715 g/cm^3

CELL_PARAMETERS (alat= 10.26000000)
  -0.501729902   0.000000000   0.501729902
  -0.000000000   0.501729902   0.501729902
  -0.501729902   0.501729902   0.000000000

ATOMIC_POSITIONS (crystal)
Si               0.0000000000        0.0000000000        0.0000000000
Si               0.2500000000        0.2500000000        0.2500000000



     Writing config-only to output data dir ./out/silicon.save/ :
     XML data file
     NEW-OLD atomic charge density approx. for the potential
     New effective cutoffs (rho, wfc):  396.28   49.65

     total cpu time spent up to now is        2.4 secs

     Self-consistent Calculation

     iteration #  1     ecut=    50.00 Ry     beta= 0.70
     Davidson diagonalization with overlap

---- Real-time Memory Report at c_bands before calling an iterative solver
            61 MiB given to the printing process from OS
             0 MiB allocation reported by mallinfo(arena+hblkhd)
         10287 MiB available memory on the node where the printing process lives
------------------
     ethr =  1.00E-06,  avg # of iterations =  4.5

     Threshold (ethr) on eigenvalues was too large:
     Diagonalizing with lowered threshold

     Davidson diagonalization with overlap

---- Real-time Memory Report at c_bands before calling an iterative solver
            61 MiB given to the printing process from OS
             0 MiB allocation reported by mallinfo(arena+hblkhd)
         10287 MiB available memory on the node where the printing process lives
------------------
     ethr =  4.95E-08,  avg # of iterations =  2.5

     total cpu time spent up to now is        2.7 secs

     total energy              =     -93.45352896 Ry
     estimated scf accuracy    <       0.00000327 Ry

     iteration #  2     ecut=    50.00 Ry     beta= 0.70
     Davidson diagonalization with overlap

---- Real-time Memory Report at c_bands before calling an iterative solver
            61 MiB given to the printing process from OS
             0 MiB allocation reported by mallinfo(arena+hblkhd)
         10287 MiB available memory on the node where the printing process lives
------------------
     ethr =  4.08E-08,  avg # of iterations =  1.7

     total cpu time spent up to now is        2.9 secs

     total energy              =     -93.45352908 Ry
     estimated scf accuracy    <       0.00000012 Ry

     iteration #  3     ecut=    50.00 Ry     beta= 0.70
     Davidson diagonalization with overlap

---- Real-time Memory Report at c_bands before calling an iterative solver
            61 MiB given to the printing process from OS
             0 MiB allocation reported by mallinfo(arena+hblkhd)
         10287 MiB available memory on the node where the printing process lives
------------------
     ethr =  1.48E-09,  avg # of iterations =  4.6

     total cpu time spent up to now is        3.1 secs

     total energy              =     -93.45352921 Ry
     estimated scf accuracy    <       0.00000002 Ry

     iteration #  4     ecut=    50.00 Ry     beta= 0.70
     Davidson diagonalization with overlap

---- Real-time Memory Report at c_bands before calling an iterative solver
            61 MiB given to the printing process from OS
             0 MiB allocation reported by mallinfo(arena+hblkhd)
         10287 MiB available memory on the node where the printing process lives
------------------
     ethr =  1.97E-10,  avg # of iterations =  3.0

     total cpu time spent up to now is        3.3 secs

     total energy              =     -93.45352921 Ry
     estimated scf accuracy    <       0.00000002 Ry

     iteration #  5     ecut=    50.00 Ry     beta= 0.70
     Davidson diagonalization with overlap

---- Real-time Memory Report at c_bands before calling an iterative solver
            61 MiB given to the printing process from OS
             0 MiB allocation reported by mallinfo(arena+hblkhd)
         10287 MiB available memory on the node where the printing process lives
------------------
     ethr =  1.97E-10,  avg # of iterations =  1.4

     total cpu time spent up to now is        3.5 secs

     End of self-consistent calculation

          k =-0.0830 0.0830 0.0830 (  1606 PWs)   bands (ev):

    -5.7052   5.2423   5.9593   5.9593

     occupation numbers 
     1.0000   1.0000   1.0000   1.0000

          k =-0.2491 0.2491-0.0830 (  1600 PWs)   bands (ev):

    -5.2311   3.1655   4.7282   5.7497

     occupation numbers 
     1.0000   1.0000   1.0000   1.0000

          k =-0.4152 0.4152-0.2491 (  1611 PWs)   bands (ev):

    -4.1450   0.4142   4.2647   5.1150

     occupation numbers 
     1.0000   1.0000   1.0000   1.0000

          k = 0.4152-0.4152 0.5813 (  1613 PWs)   bands (ev):

    -3.4516  -0.7236   4.3305   4.7360

     occupation numbers 
     1.0000   1.0000   1.0000   1.0000

          k = 0.2491-0.2491 0.4152 (  1606 PWs)   bands (ev):

    -4.5543   1.2571   4.7958   4.8278

     occupation numbers 
     1.0000   1.0000   1.0000   1.0000

          k = 0.0830-0.0830 0.2491 (  1599 PWs)   bands (ev):

    -5.4658   4.1741   5.3157   5.5006

     occupation numbers 
     1.0000   1.0000   1.0000   1.0000

          k =-0.0830 0.4152 0.0830 (  1612 PWs)   bands (ev):

    -4.9911   2.9760   4.5728   4.5887

     occupation numbers 
     1.0000   1.0000   1.0000   1.0000

          k =-0.2491 0.5813-0.0830 (  1611 PWs)   bands (ev):

    -4.0857   1.1422   3.2603   4.2032

     occupation numbers 
     1.0000   1.0000   1.0000   1.0000

          k = 0.5813-0.2491 0.7474 (  1607 PWs)   bands (ev):

    -2.9765  -0.5990   2.6600   3.9773

     occupation numbers 
     1.0000   1.0000   1.0000   1.0000

          k = 0.4152-0.0830 0.5813 (  1608 PWs)   bands (ev):

    -3.6936   0.4528   2.6197   4.4615

     occupation numbers 
     1.0000   1.0000   1.0000   1.0000

          k = 0.2491 0.0830 0.4152 (  1607 PWs)   bands (ev):

    -4.7669   2.1431   3.9543   5.1266

     occupation numbers 
     1.0000   1.0000   1.0000   1.0000

          k =-0.0830 0.7474 0.0830 (  1618 PWs)   bands (ev):

    -3.3776   0.3163   3.2255   3.5639

     occupation numbers 
     1.0000   1.0000   1.0000   1.0000

          k = 0.7474-0.0830 0.9135 (  1620 PWs)   bands (ev):

    -2.1882  -1.0183   2.3878   3.1593

     occupation numbers 
     1.0000   1.0000   1.0000   1.0000

          k = 0.5813 0.0830 0.7474 (  1614 PWs)   bands (ev):

    -2.5585  -0.6823   1.9062   3.7024

     occupation numbers 
     1.0000   1.0000   1.0000   1.0000

          k = 0.4152 0.2491 0.5813 (  1612 PWs)   bands (ev):

    -3.5827  -0.2261   3.5561   4.5589

     occupation numbers 
     1.0000   1.0000   1.0000   1.0000

          k =-0.0830-0.9135 0.0830 (  1620 PWs)   bands (ev):

    -2.2790  -1.0260   2.9572   3.3494

     occupation numbers 
     1.0000   1.0000   1.0000   1.0000

          k =-0.2491-0.7474-0.0830 (  1621 PWs)   bands (ev):

    -3.2102   0.0941   2.7073   3.4983

     occupation numbers 
     1.0000   1.0000   1.0000   1.0000

          k =-0.0830-0.5813 0.0830 (  1617 PWs)   bands (ev):

    -4.2900   1.6775   3.7677   3.9845

     occupation numbers 
     1.0000   1.0000   1.0000   1.0000

          k =-0.2491 0.2491 0.2491 (  1618 PWs)   bands (ev):

    -5.0028   2.1906   5.3477   5.3477

     occupation numbers 
     1.0000   1.0000   1.0000   1.0000

          k =-0.4152 0.4152 0.0830 (  1613 PWs)   bands (ev):

    -4.3274   1.2582   3.2242   5.1789

     occupation numbers 
     1.0000   1.0000   1.0000   1.0000

          k = 0.4152-0.4152 0.9135 (  1607 PWs)   bands (ev):

    -3.1552  -0.1785   2.1226   4.3958

     occupation numbers 
     1.0000   1.0000   1.0000   1.0000

          k = 0.2491-0.2491 0.7474 (  1617 PWs)   bands (ev):

    -3.1031  -0.2576   2.5987   3.9158

     occupation numbers 
     1.0000   1.0000   1.0000   1.0000

          k =-0.2491 0.5813 0.2491 (  1610 PWs)   bands (ev):

    -3.9058   0.4543   3.6856   4.2875

     occupation numbers 
     1.0000   1.0000   1.0000   1.0000

          k = 0.5813-0.2491 1.0796 (  1611 PWs)   bands (ev):

    -2.9093  -0.2926   2.2225   3.4963

     occupation numbers 
     1.0000   1.0000   1.0000   1.0000

          k = 0.4152-0.0830 0.9135 (  1613 PWs)   bands (ev):

    -2.0828  -1.0260   2.0600   2.8320

     occupation numbers 
     1.0000   1.0000   1.0000   1.0000

          k =-0.2491-1.0796 0.2491 (  1620 PWs)   bands (ev):

    -2.2925  -0.9312   1.9343   3.7220

     occupation numbers 
     1.0000   1.0000   1.0000   1.0000

          k =-0.4152 0.4152 0.4152 (  1610 PWs)   bands (ev):

    -3.8181  -0.3253   4.9605   4.9605

     occupation numbers 
     1.0000   1.0000   1.0000   1.0000

          k = 0.4152-0.4152 1.2457 (  1602 PWs)   bands (ev):

    -3.2170  -0.6272   3.1324   4.5221

     occupation numbers 
     1.0000   1.0000   1.0000   1.0000

     highest occupied level (ev):     5.9593

!    total energy              =     -93.45352921 Ry
     total all-electron energy =     -1160.145259 Ry
     estimated scf accuracy    <          4.1E-10 Ry

     The total energy is the sum of the following terms:
     one-electron contribution =       5.66266078 Ry
     hartree contribution      =       1.10881445 Ry
     xc contribution           =     -12.29685423 Ry
     ewald contribution        =     -16.74300206 Ry
     one-center paw contrib.   =     -71.18514814 Ry
      -> PAW hartree energy AE =       2.94961553 Ry
      -> PAW hartree energy PS =      -2.93828637 Ry
      -> PAW xc energy AE      =     -40.86410427 Ry
      -> PAW xc energy PS      =       5.26020103 Ry
      -> total E_H with PAW    =       1.12014362 Ry
      -> total E_XC with PAW   =     -47.90075747 Ry

     convergence has been achieved in   5 iterations

     Forces acting on atoms (cartesian axes, Ry/au):

     atom    1 type  1   force =    -0.00000000   -0.00000000   -0.00000000
     atom    2 type  1   force =     0.00000000    0.00000000    0.00000000
     The non-local contrib.  to forces
     atom    1 type  1   force =     0.00000000   -0.00000000   -0.00000000
     atom    2 type  1   force =    -0.00000000    0.00000000    0.00000000
     The ionic contribution  to forces
     atom    1 type  1   force =     0.00000000    0.00000000    0.00000000
     atom    2 type  1   force =     0.00000000   -0.00000000   -0.00000000
     The local contribution  to forces
     atom    1 type  1   force =     0.00000000   -0.00000000   -0.00000000
     atom    2 type  1   force =    -0.00000000    0.00000000    0.00000000
     The core correction contribution to forces
     atom    1 type  1   force =     0.00000000   -0.00000000   -0.00000000
     atom    2 type  1   force =     0.00000000    0.00000000    0.00000000
     The Hubbard contrib.    to forces
     atom    1 type  1   force =     0.00000000    0.00000000    0.00000000
     atom    2 type  1   force =     0.00000000    0.00000000    0.00000000
     The SCF correction term to forces
     atom    1 type  1   force =    -0.00000000   -0.00000000   -0.00000000
     atom    2 type  1   force =    -0.00000000    0.00000000   -0.00000000

     Total force =     0.000000     Total SCF correction =     0.000000


     Computing stress (Cartesian axis) and pressure

          total   stress  (Ry/bohr**3)                   (kbar)     P=       10.44
   0.00007099   0.00000000   0.00000000           10.44        0.00        0.00
   0.00000000   0.00007099  -0.00000000            0.00       10.44       -0.00
   0.00000000  -0.00000000   0.00007099            0.00       -0.00       10.44

     kinetic stress (kbar)   2179.31     -0.00     -0.00
                               -0.00   2179.31      0.00
                               -0.00      0.00   2179.31

     local   stress (kbar)     43.87      0.00     -0.00
                                0.00     43.87     -0.00
                               -0.00     -0.00     43.87

     nonloc. stress (kbar)   1585.30      0.00      0.00
                                0.00   1585.30     -0.00
                                0.00     -0.00   1585.30

     hartree stress (kbar)    199.29     -0.00      0.00
                               -0.00    199.29     -0.00
                                0.00     -0.00    199.29

     exc-cor stress (kbar)   2918.91     -0.00      0.00
                               -0.00   2918.91     -0.00
                                0.00     -0.00   2918.91

     corecor stress (kbar)  -3907.00     -0.00     -0.00
                               -0.00  -3907.00      0.00
                               -0.00      0.00  -3907.00

     ewald   stress (kbar)  -3009.25     -0.00     -0.00
                               -0.00  -3009.25     -0.00
                               -0.00     -0.00  -3009.25

     hubbard stress (kbar)      0.00      0.00      0.00
                                0.00      0.00      0.00
                                0.00      0.00      0.00

     DFT-D   stress (kbar)      0.00      0.00      0.00
                                0.00      0.00      0.00
                                0.00      0.00      0.00

     XDM     stress (kbar)      0.00      0.00      0.00
                                0.00      0.00      0.00
                                0.00      0.00      0.00

     dft-nl  stress (kbar)      0.00      0.00      0.00
                                0.00      0.00      0.00
                                0.00      0.00      0.00

     TS-vdW  stress (kbar)      0.00      0.00      0.00
                                0.00      0.00      0.00
                                0.00      0.00      0.00

     MDB     stress (kbar)      0.00      0.00      0.00
                                0.00      0.00      0.00
                                0.00      0.00      0.00

     3D-RISM stress (kbar)      0.00      0.00      0.00
                                0.00      0.00      0.00
                                0.00      0.00      0.00

     Energy error            =      2.9E-04 Ry
     Gradient error          =      4.1E-32 Ry/Bohr
     Cell gradient error     =      1.0E+01 kbar

     number of scf cycles    =   2
     number of bfgs steps    =   1

     enthalpy           old  =     -93.4532354072 Ry
     enthalpy           new  =     -93.4535292086 Ry

     CASE: enthalpy          _new < enthalpy          _old

     new trust radius        =       0.0121694429 bohr
     new conv_thr            =            1.0E-10 Ry

     new unit-cell volume =    275.84989 a.u.^3 (    40.87674 Ang^3 )
     density =      2.28184 g/cm^3

CELL_PARAMETERS (alat= 10.26000000)
  -0.503578190   0.000000000   0.503578190
  -0.000000000   0.503578190   0.503578190
  -0.503578190   0.503578190   0.000000000

ATOMIC_POSITIONS (crystal)
Si               0.0000000000       -0.0000000000        0.0000000000
Si               0.2500000000        0.2500000000        0.2500000000



     Writing config-only to output data dir ./out/silicon.save/ :
     XML data file
     NEW-OLD atomic charge density approx. for the potential
     New effective cutoffs (rho, wfc):  393.38   49.28

     total cpu time spent up to now is        3.8 secs

     Self-consistent Calculation

     iteration #  1     ecut=    50.00 Ry     beta= 0.70
     Davidson diagonalization with overlap

---- Real-time Memory Report at c_bands before calling an iterative solver
            61 MiB given to the printing process from OS
             0 MiB allocation reported by mallinfo(arena+hblkhd)
         10289 MiB available memory on the node where the printing process lives
------------------
     ethr =  1.00E-06,  avg # of iterations =  4.8

     Threshold (ethr) on eigenvalues was too large:
     Diagonalizing with lowered threshold

     Davidson diagonalization with overlap

---- Real-time Memory Report at c_bands before calling an iterative solver
            61 MiB given to the printing process from OS
             0 MiB allocation reported by mallinfo(arena+hblkhd)
         10289 MiB available memory on the node where the printing process lives
------------------
     ethr =  5.58E-08,  avg # of iterations =  2.4

     total cpu time spent up to now is        4.1 secs

     total energy              =     -93.45363945 Ry
     estimated scf accuracy    <       0.00000366 Ry

     iteration #  2     ecut=    50.00 Ry     beta= 0.70
     Davidson diagonalization with overlap

---- Real-time Memory Report at c_bands before calling an iterative solver
            61 MiB given to the printing process from OS
             0 MiB allocation reported by mallinfo(arena+hblkhd)
         10289 MiB available memory on the node where the printing process lives
------------------
     ethr =  4.57E-08,  avg # of iterations =  1.8

     total cpu time spent up to now is        4.3 secs

     total energy              =     -93.45363957 Ry
     estimated scf accuracy    <       0.00000013 Ry

     iteration #  3     ecut=    50.00 Ry     beta= 0.70
     Davidson diagonalization with overlap

---- Real-time Memory Report at c_bands before calling an iterative solver
            61 MiB given to the printing process from OS
             0 MiB allocation reported by mallinfo(arena+hblkhd)
         10291 MiB available memory on the node where the printing process lives
------------------
     ethr =  1.67E-09,  avg # of iterations =  4.7

     total cpu time spent up to now is        4.5 secs

     total energy              =     -93.45363972 Ry
     estimated scf accuracy    <       0.00000002 Ry

     iteration #  4     ecut=    50.00 Ry     beta= 0.70
     Davidson diagonalization with overlap

---- Real-time Memory Report at c_bands before calling an iterative solver
            61 MiB given to the printing process from OS
             0 MiB allocation reported by mallinfo(arena+hblkhd)
         10291 MiB available memory on the node where the printing process lives
------------------
     ethr =  2.26E-10,  avg # of iterations =  3.1

     total cpu time spent up to now is        4.7 secs

     total energy              =     -93.45363972 Ry
     estimated scf accuracy    <       0.00000002 Ry

     iteration #  5     ecut=    50.00 Ry     beta= 0.70
     Davidson diagonalization with overlap

---- Real-time Memory Report at c_bands before calling an iterative solver
            61 MiB given to the printing process from OS
             0 MiB allocation reported by mallinfo(arena+hblkhd)
         10291 MiB available memory on the node where the printing process lives
------------------
     ethr =  2.26E-10,  avg # of iterations =  1.6

     total cpu time spent up to now is        4.9 secs

     total energy              =     -93.45363972 Ry
     estimated scf accuracy    <          5.0E-10 Ry

     iteration #  6     ecut=    50.00 Ry     beta= 0.70
     Davidson diagonalization with overlap

---- Real-time Memory Report at c_bands before calling an iterative solver
            61 MiB given to the printing process from OS
             0 MiB allocation reported by mallinfo(arena+hblkhd)
         10291 MiB available memory on the node where the printing process lives
------------------
     ethr =  6.23E-12,  avg # of iterations =  5.1

     total cpu time spent up to now is        5.1 secs

     End of self-consistent calculation

          k =-0.0827 0.0827 0.0827 (  1606 PWs)   bands (ev):

    -5.7450   5.1279   5.8469   5.8469

     occupation numbers 
     1.0000   1.0000   1.0000   1.0000

          k =-0.2482 0.2482-0.0827 (  1600 PWs)   bands (ev):

    -5.2755   3.0604   4.6288   5.6377

     occupation numbers 
     1.0000   1.0000   1.0000   1.0000

          k =-0.4137 0.4137-0.2482 (  1611 PWs)   bands (ev):

    -4.2012   0.3348   4.1660   5.0090

     occupation numbers 
     1.0000   1.0000   1.0000   1.0000

          k = 0.4137-0.4137 0.5792 (  1613 PWs)   bands (ev):

    -3.5180  -0.7892   4.2289   4.6343

     occupation numbers 
     1.0000   1.0000   1.0000   1.0000

          k = 0.2482-0.2482 0.4137 (  1606 PWs)   bands (ev):

    -4.6058   1.1692   4.6952   4.7215

     occupation numbers 
     1.0000   1.0000   1.0000   1.0000

          k = 0.0827-0.0827 0.2482 (  1599 PWs)   bands (ev):

    -5.5079   4.0611   5.2113   5.3897

     occupation numbers 
     1.0000   1.0000   1.0000   1.0000

          k =-0.0827 0.4137 0.0827 (  1612 PWs)   bands (ev):

    -5.0378   2.8636   4.4726   4.4917

     occupation numbers 
     1.0000   1.0000   1.0000   1.0000

          k =-0.2482 0.5792-0.0827 (  1611 PWs)   bands (ev):

    -4.1415   1.0435   3.1760   4.1092

     occupation numbers 
     1.0000   1.0000   1.0000   1.0000

          k = 0.5792-0.2482 0.7447 (  1607 PWs)   bands (ev):

    -3.0470  -0.6748   2.5780   3.8867

     occupation numbers 
     1.0000   1.0000   1.0000   1.0000

          k = 0.4137-0.0827 0.5792 (  1608 PWs)   bands (ev):

    -3.7542   0.3625   2.5424   4.3644

     occupation numbers 
     1.0000   1.0000   1.0000   1.0000

          k = 0.2482 0.0827 0.4137 (  1607 PWs)   bands (ev):

    -4.8159   2.0421   3.8625   5.0204

     occupation numbers 
     1.0000   1.0000   1.0000   1.0000

          k =-0.0827 0.7447 0.0827 (  1618 PWs)   bands (ev):

    -3.4400   0.2183   3.1433   3.4762

     occupation numbers 
     1.0000   1.0000   1.0000   1.0000

          k = 0.7447-0.0827 0.9102 (  1620 PWs)   bands (ev):

    -2.2638  -1.1045   2.3175   3.0780

     occupation numbers 
     1.0000   1.0000   1.0000   1.0000

          k = 0.5792 0.0827 0.7447 (  1614 PWs)   bands (ev):

    -2.6330  -0.7664   1.8403   3.6149

     occupation numbers 
     1.0000   1.0000   1.0000   1.0000

          k = 0.4137 0.2482 0.5792 (  1612 PWs)   bands (ev):

    -3.6457  -0.3010   3.4626   4.4601

     occupation numbers 
     1.0000   1.0000   1.0000   1.0000

          k =-0.0827-0.9102 0.0827 (  1620 PWs)   bands (ev):

    -2.3523  -1.1116   2.8779   3.2636

     occupation numbers 
     1.0000   1.0000   1.0000   1.0000

          k =-0.2482-0.7447-0.0827 (  1621 PWs)   bands (ev):

    -3.2750  -0.0006   2.6312   3.4136

     occupation numbers 
     1.0000   1.0000   1.0000   1.0000

          k =-0.0827-0.5792 0.0827 (  1617 PWs)   bands (ev):

    -4.3434   1.5696   3.6787   3.8931

     occupation numbers 
     1.0000   1.0000   1.0000   1.0000

          k =-0.2482 0.2482 0.2482 (  1618 PWs)   bands (ev):

    -5.0495   2.0963   5.2408   5.2408

     occupation numbers 
     1.0000   1.0000   1.0000   1.0000

          k =-0.4137 0.4137 0.0827 (  1613 PWs)   bands (ev):

    -4.3811   1.1642   3.1400   5.0727

     occupation numbers 
     1.0000   1.0000   1.0000   1.0000

          k = 0.4137-0.4137 0.9102 (  1607 PWs)   bands (ev):

    -3.2226  -0.2638   2.0519   4.2987

     occupation numbers 
     1.0000   1.0000   1.0000   1.0000

          k = 0.2482-0.2482 0.7447 (  1617 PWs)   bands (ev):

    -3.1703  -0.3424   2.5208   3.8242

     occupation numbers 
     1.0000   1.0000   1.0000   1.0000

          k =-0.2482 0.5792 0.2482 (  1610 PWs)   bands (ev):

    -3.9641   0.3695   3.5908   4.1922

     occupation numbers 
     1.0000   1.0000   1.0000   1.0000

          k = 0.5792-0.2482 1.0756 (  1611 PWs)   bands (ev):

    -2.9787  -0.3814   2.1515   3.4128

     occupation numbers 
     1.0000   1.0000   1.0000   1.0000

          k = 0.4137-0.0827 0.9102 (  1613 PWs)   bands (ev):

    -2.1613  -1.1122   1.9942   2.7572

     occupation numbers 
     1.0000   1.0000   1.0000   1.0000

          k =-0.2482-1.0756 0.2482 (  1620 PWs)   bands (ev):

    -2.3692  -1.0151   1.8697   3.6324

     occupation numbers 
     1.0000   1.0000   1.0000   1.0000

          k =-0.4137 0.4137 0.4137 (  1610 PWs)   bands (ev):

    -3.8791  -0.3952   4.8560   4.8560

     occupation numbers 
     1.0000   1.0000   1.0000   1.0000

          k = 0.4137-0.4137 1.2411 (  1602 PWs)   bands (ev):

    -3.2855  -0.6978   3.0439   4.4233

     occupation numbers 
     1.0000   1.0000   1.0000   1.0000

     highest occupied level (ev):     5.8469

!    total energy              =     -93.45363972 Ry
     total all-electron energy =     -1160.145370 Ry
     estimated scf accuracy    <          5.0E-11 Ry

     The total energy is the sum of the following terms:
     one-electron contribution =       5.57619797 Ry
     hartree contribution      =       1.11867116 Ry
     xc contribution           =     -12.28355975 Ry
     ewald contribution        =     -16.68155005 Ry
     one-center paw contrib.   =     -71.18339904 Ry
      -> PAW hartree energy AE =       2.91881110 Ry
      -> PAW hartree energy PS =      -2.90754291 Ry
      -> PAW xc energy AE      =     -40.85164430 Ry
      -> PAW xc energy PS      =       5.24867660 Ry
      -> total E_H with PAW    =       1.12993934 Ry
      -> total E_XC with PAW   =     -47.88652746 Ry

     convergence has been achieved in   6 iterations

     Forces acting on atoms (cartesian axes, Ry/au):

     atom    1 type  1   force =    -0.00000000    0.00000000    0.00000000
     atom    2 type  1   force =     0.00000000    0.00000000    0.00000000
     The non-local contrib.  to forces
     atom    1 type  1   force =     0.00000000    0.00000000    0.00000000
     atom    2 type  1   force =    -0.00000000    0.00000000   -0.00000000
     The ionic contribution  to forces
     atom    1 type  1   force =     0.00000000   -0.00000000    0.00000000
     atom    2 type  1   force =    -0.00000000    0.00000000   -0.00000000
     The local contribution  to forces
     atom    1 type  1   force =     0.00000000   -0.00000000    0.00000000
     atom    2 type  1   force =    -0.00000000    0.00000000   -0.00000000
     The core correction contribution to forces
     atom    1 type  1   force =     0.00000000   -0.00000000    0.00000000
     atom    2 type  1   force =    -0.00000000    0.00000000    0.00000000
     The Hubbard contrib.    to forces
     atom    1 type  1   force =     0.00000000    0.00000000    0.00000000
     atom    2 type  1   force =     0.00000000    0.00000000    0.00000000
     The SCF correction term to forces
     atom    1 type  1   force =     0.00000000   -0.00000000   -0.00000000
     atom    2 type  1   force =    -0.00000000   -0.00000000   -0.00000000

     Total force =     0.000000     Total SCF correction =     0.000000


     Computing stress (Cartesian axis) and pressure

          total   stress  (Ry/bohr**3)                   (kbar)     P=        0.38
   0.00000260   0.00000000   0.00000000            0.38        0.00        0.00
   0.00000000   0.00000260  -0.00000000            0.00        0.38       -0.00
   0.00000000  -0.00000000   0.00000260            0.00       -0.00        0.38

     kinetic stress (kbar)   2145.70      0.00     -0.00
                                0.00   2145.70      0.00
                               -0.00      0.00   2145.70

     local   stress (kbar)     31.81     -0.00      0.00
                               -0.00     31.81     -0.00
                                0.00     -0.00     31.81

     nonloc. stress (kbar)   1564.28      0.00      0.00
                                0.00   1564.28      0.00
                                0.00      0.00   1564.28

     hartree stress (kbar)    198.85      0.00     -0.00
                                0.00    198.85      0.00
                               -0.00      0.00    198.85

     exc-cor stress (kbar)   2888.54      0.00     -0.00
                                0.00   2888.54      0.00
                               -0.00      0.00   2888.54

     corecor stress (kbar)  -3863.50      0.00      0.00
                                0.00  -3863.50     -0.00
                                0.00     -0.00  -3863.50

     ewald   stress (kbar)  -2965.31      0.00     -0.00
                                0.00  -2965.31     -0.00
                               -0.00     -0.00  -2965.31

     hubbard stress (kbar)      0.00      0.00      0.00
                                0.00      0.00      0.00
                                0.00      0.00      0.00

     DFT-D   stress (kbar)      0.00      0.00      0.00
                                0.00      0.00      0.00
                                0.00      0.00      0.00

     XDM     stress (kbar)      0.00      0.00      0.00
                                0.00      0.00      0.00
                                0.00      0.00      0.00

     dft-nl  stress (kbar)      0.00      0.00      0.00
                                0.00      0.00      0.00
                                0.00      0.00      0.00

     TS-vdW  stress (kbar)      0.00      0.00      0.00
                                0.00      0.00      0.00
                                0.00      0.00      0.00

     MDB     stress (kbar)      0.00      0.00      0.00
                                0.00      0.00      0.00
                                0.00      0.00      0.00

     3D-RISM stress (kbar)      0.00      0.00      0.00
                                0.00      0.00      0.00
                                0.00      0.00      0.00

     Energy error            =      1.1E-04 Ry
     Gradient error          =      1.6E-32 Ry/Bohr
     Cell gradient error     =      3.8E-01 kbar

     number of scf cycles    =   3
     number of bfgs steps    =   2

     enthalpy           old  =     -93.4535292086 Ry
     enthalpy           new  =     -93.4536397169 Ry

     CASE: enthalpy          _new < enthalpy          _old

     new trust radius        =       0.0004668079 bohr
     new conv_thr            =            1.0E-10 Ry

     new unit-cell volume =    275.96620 a.u.^3 (    40.89397 Ang^3 )
     density =      2.28088 g/cm^3

CELL_PARAMETERS (alat= 10.26000000)
  -0.503648959   0.000000000   0.503648959
  -0.000000000   0.503648959   0.503648959
  -0.503648959   0.503648959   0.000000000

ATOMIC_POSITIONS (crystal)
Si               0.0000000000       -0.0000000000        0.0000000000
Si               0.2500000000        0.2500000000        0.2500000000



     Writing config-only to output data dir ./out/silicon.save/ :
     XML data file
     NEW-OLD atomic charge density approx. for the potential
[...]

     starting charge       7.9989, renormalised to       8.0000
     Starting wfcs are    8 randomized atomic wfcs
     Checking if some PAW data can be deallocated... 

     total cpu time spent up to now is        6.6 secs

     Self-consistent Calculation

     iteration #  1     ecut=    50.00 Ry     beta= 0.70
     Davidson diagonalization with overlap

---- Real-time Memory Report at c_bands before calling an iterative solver
            61 MiB given to the printing process from OS
             0 MiB allocation reported by mallinfo(arena+hblkhd)
         10292 MiB available memory on the node where the printing process lives
------------------
     ethr =  1.00E-06,  avg # of iterations = 11.1

     total cpu time spent up to now is        6.9 secs

     total energy              =     -93.45138929 Ry
     estimated scf accuracy    <       0.05466848 Ry

     iteration #  2     ecut=    50.00 Ry     beta= 0.70
     Davidson diagonalization with overlap

---- Real-time Memory Report at c_bands before calling an iterative solver
            61 MiB given to the printing process from OS
             0 MiB allocation reported by mallinfo(arena+hblkhd)
         10292 MiB available memory on the node where the printing process lives
------------------
     ethr =  6.83E-04,  avg # of iterations =  1.0

     total cpu time spent up to now is        7.1 secs

     total energy              =     -93.45329022 Ry
     estimated scf accuracy    <       0.00237499 Ry

     iteration #  3     ecut=    50.00 Ry     beta= 0.70
     Davidson diagonalization with overlap

---- Real-time Memory Report at c_bands before calling an iterative solver
            61 MiB given to the printing process from OS
             0 MiB allocation reported by mallinfo(arena+hblkhd)
         10292 MiB available memory on the node where the printing process lives
------------------
     ethr =  2.97E-05,  avg # of iterations =  2.0

     total cpu time spent up to now is        7.3 secs

     total energy              =     -93.45359542 Ry
     estimated scf accuracy    <       0.00002356 Ry

     iteration #  4     ecut=    50.00 Ry     beta= 0.70
     Davidson diagonalization with overlap

---- Real-time Memory Report at c_bands before calling an iterative solver
            61 MiB given to the printing process from OS
             0 MiB allocation reported by mallinfo(arena+hblkhd)
         10293 MiB available memory on the node where the printing process lives
------------------
     ethr =  2.95E-07,  avg # of iterations =  6.0

     total cpu time spent up to now is        7.5 secs

     total energy              =     -93.45364319 Ry
     estimated scf accuracy    <       0.00000677 Ry

     iteration #  5     ecut=    50.00 Ry     beta= 0.70
     Davidson diagonalization with overlap

---- Real-time Memory Report at c_bands before calling an iterative solver
            77 MiB given to the printing process from OS
             0 MiB allocation reported by mallinfo(arena+hblkhd)
         10246 MiB available memory on the node where the printing process lives
------------------
     ethr =  8.46E-08,  avg # of iterations =  2.3

     total cpu time spent up to now is        7.7 secs

     total energy              =     -93.45364284 Ry
     estimated scf accuracy    <       0.00000672 Ry

     iteration #  6     ecut=    50.00 Ry     beta= 0.70
     Davidson diagonalization with overlap

---- Real-time Memory Report at c_bands before calling an iterative solver
            77 MiB given to the printing process from OS
             0 MiB allocation reported by mallinfo(arena+hblkhd)
         10200 MiB available memory on the node where the printing process lives
------------------
     ethr =  8.41E-08,  avg # of iterations =  1.6

     total cpu time spent up to now is        7.9 secs

     total energy              =     -93.45364340 Ry
     estimated scf accuracy    <       0.00000001 Ry

     iteration #  7     ecut=    50.00 Ry     beta= 0.70
     Davidson diagonalization with overlap

---- Real-time Memory Report at c_bands before calling an iterative solver
            77 MiB given to the printing process from OS
             0 MiB allocation reported by mallinfo(arena+hblkhd)
         10200 MiB available memory on the node where the printing process lives
------------------
     ethr =  1.36E-10,  avg # of iterations =  7.4

     total cpu time spent up to now is        8.1 secs

     total energy              =     -93.45364350 Ry
     estimated scf accuracy    <       0.00000002 Ry

     iteration #  8     ecut=    50.00 Ry     beta= 0.70
     Davidson diagonalization with overlap

---- Real-time Memory Report at c_bands before calling an iterative solver
            77 MiB given to the printing process from OS
             0 MiB allocation reported by mallinfo(arena+hblkhd)
         10200 MiB available memory on the node where the printing process lives
------------------
     ethr =  1.36E-10,  avg # of iterations =  1.1

     total cpu time spent up to now is        8.3 secs

     total energy              =     -93.45364350 Ry
     estimated scf accuracy    <          1.5E-09 Ry

     iteration #  9     ecut=    50.00 Ry     beta= 0.70
     Davidson diagonalization with overlap

---- Real-time Memory Report at c_bands before calling an iterative solver
            77 MiB given to the printing process from OS
             0 MiB allocation reported by mallinfo(arena+hblkhd)
         10204 MiB available memory on the node where the printing process lives
------------------
     ethr =  1.93E-11,  avg # of iterations =  3.0

     total cpu time spent up to now is        8.5 secs

     total energy              =     -93.45364350 Ry
     estimated scf accuracy    <          9.3E-10 Ry

     iteration # 10     ecut=    50.00 Ry     beta= 0.70
     Davidson diagonalization with overlap

---- Real-time Memory Report at c_bands before calling an iterative solver
            77 MiB given to the printing process from OS
             0 MiB allocation reported by mallinfo(arena+hblkhd)
         10204 MiB available memory on the node where the printing process lives
------------------
     ethr =  1.17E-11,  avg # of iterations =  1.0

     total cpu time spent up to now is        8.7 secs

     End of self-consistent calculation

          k =-0.0827 0.0827 0.0827 (  1654 PWs)   bands (ev):

    -5.7465   5.1236   5.8427   5.8427

     occupation numbers 
     1.0000   1.0000   1.0000   1.0000

          k =-0.2482 0.2482-0.0827 (  1645 PWs)   bands (ev):

    -5.2771   3.0564   4.6250   5.6335

     occupation numbers 
     1.0000   1.0000   1.0000   1.0000

          k =-0.4136 0.4136-0.2482 (  1645 PWs)   bands (ev):

    -4.2034   0.3318   4.1622   5.0049

     occupation numbers 
     1.0000   1.0000   1.0000   1.0000

          k = 0.4136-0.4136 0.5791 (  1651 PWs)   bands (ev):

    -3.5205  -0.7917   4.2251   4.6305

     occupation numbers 
     1.0000   1.0000   1.0000   1.0000

          k = 0.2482-0.2482 0.4136 (  1645 PWs)   bands (ev):

    -4.6077   1.1659   4.6914   4.7175

     occupation numbers 
     1.0000   1.0000   1.0000   1.0000

          k = 0.0827-0.0827 0.2482 (  1651 PWs)   bands (ev):

    -5.5095   4.0568   5.2074   5.3854

     occupation numbers 
     1.0000   1.0000   1.0000   1.0000

          k =-0.0827 0.4136 0.0827 (  1641 PWs)   bands (ev):

    -5.0395   2.8593   4.4687   4.4880

     occupation numbers 
     1.0000   1.0000   1.0000   1.0000

          k =-0.2482 0.5791-0.0827 (  1649 PWs)   bands (ev):

    -4.1437   1.0398   3.1728   4.1056

     occupation numbers 
     1.0000   1.0000   1.0000   1.0000

          k = 0.5791-0.2482 0.7446 (  1650 PWs)   bands (ev):

    -3.0497  -0.6777   2.5749   3.8833

     occupation numbers 
     1.0000   1.0000   1.0000   1.0000

          k = 0.4136-0.0827 0.5791 (  1643 PWs)   bands (ev):

    -3.7565   0.3590   2.5395   4.3607

     occupation numbers 
     1.0000   1.0000   1.0000   1.0000

          k = 0.2482 0.0827 0.4136 (  1642 PWs)   bands (ev):

    -4.8178   2.0382   3.8590   5.0163

     occupation numbers 
     1.0000   1.0000   1.0000   1.0000

          k =-0.0827 0.7446 0.0827 (  1652 PWs)   bands (ev):

    -3.4424   0.2146   3.1402   3.4729

     occupation numbers 
     1.0000   1.0000   1.0000   1.0000

          k = 0.7446-0.0827 0.9100 (  1653 PWs)   bands (ev):

    -2.2667  -1.1078   2.3148   3.0749

     occupation numbers 
     1.0000   1.0000   1.0000   1.0000

          k = 0.5791 0.0827 0.7446 (  1651 PWs)   bands (ev):

    -2.6358  -0.7696   1.8378   3.6116

     occupation numbers 
     1.0000   1.0000   1.0000   1.0000

          k = 0.4136 0.2482 0.5791 (  1646 PWs)   bands (ev):

    -3.6481  -0.3039   3.4591   4.4563

     occupation numbers 
     1.0000   1.0000   1.0000   1.0000

          k =-0.0827-0.9100 0.0827 (  1650 PWs)   bands (ev):

    -2.3551  -1.1148   2.8749   3.2604

     occupation numbers 
     1.0000   1.0000   1.0000   1.0000

          k =-0.2482-0.7446-0.0827 (  1651 PWs)   bands (ev):

    -3.2775  -0.0042   2.6283   3.4104

     occupation numbers 
     1.0000   1.0000   1.0000   1.0000

          k =-0.0827-0.5791 0.0827 (  1651 PWs)   bands (ev):

    -4.3454   1.5655   3.6753   3.8897

     occupation numbers 
     1.0000   1.0000   1.0000   1.0000

          k =-0.2482 0.2482 0.2482 (  1642 PWs)   bands (ev):

    -5.0513   2.0927   5.2367   5.2367

     occupation numbers 
     1.0000   1.0000   1.0000   1.0000

          k =-0.4136 0.4136 0.0827 (  1643 PWs)   bands (ev):

    -4.3831   1.1607   3.1368   5.0686

     occupation numbers 
     1.0000   1.0000   1.0000   1.0000

          k = 0.4136-0.4136 0.9100 (  1642 PWs)   bands (ev):

    -3.2251  -0.2671   2.0492   4.2950

     occupation numbers 
     1.0000   1.0000   1.0000   1.0000

          k = 0.2482-0.2482 0.7446 (  1651 PWs)   bands (ev):

    -3.1729  -0.3456   2.5178   3.8208

     occupation numbers 
     1.0000   1.0000   1.0000   1.0000

          k =-0.2482 0.5791 0.2482 (  1644 PWs)   bands (ev):

    -3.9663   0.3663   3.5871   4.1886

     occupation numbers 
     1.0000   1.0000   1.0000   1.0000

          k = 0.5791-0.2482 1.0755 (  1649 PWs)   bands (ev):

    -2.9814  -0.3848   2.1488   3.4097

     occupation numbers 
     1.0000   1.0000   1.0000   1.0000

          k = 0.4136-0.0827 0.9100 (  1646 PWs)   bands (ev):

    -2.1643  -1.1155   1.9916   2.7543

     occupation numbers 
     1.0000   1.0000   1.0000   1.0000

          k =-0.2482-1.0755 0.2482 (  1650 PWs)   bands (ev):

    -2.3722  -1.0183   1.8672   3.6289

     occupation numbers 
     1.0000   1.0000   1.0000   1.0000

          k =-0.4136 0.4136 0.4136 (  1652 PWs)   bands (ev):

    -3.8814  -0.3978   4.8520   4.8520

     occupation numbers 
     1.0000   1.0000   1.0000   1.0000

          k = 0.4136-0.4136 1.2409 (  1647 PWs)   bands (ev):

    -3.2881  -0.7005   3.0405   4.4196

     occupation numbers 
     1.0000   1.0000   1.0000   1.0000

     highest occupied level (ev):     5.8427

!    total energy              =     -93.45364350 Ry
     total all-electron energy =     -1160.145373 Ry
     estimated scf accuracy    <          5.8E-11 Ry

     The total energy is the sum of the following terms:
     one-electron contribution =       5.57290233 Ry
     hartree contribution      =       1.11904950 Ry
     xc contribution           =     -12.28305599 Ry
     ewald contribution        =     -16.67920611 Ry
     one-center paw contrib.   =     -71.18333323 Ry
      -> PAW hartree energy AE =       2.91755984 Ry
      -> PAW hartree energy PS =      -2.90629380 Ry
      -> PAW xc energy AE      =     -40.85114005 Ry
      -> PAW xc energy PS      =       5.24820739 Ry
      -> total E_H with PAW    =       1.13031554 Ry
      -> total E_XC with PAW   =     -47.88598865 Ry

     convergence has been achieved in  10 iterations

     Forces acting on atoms (cartesian axes, Ry/au):

     atom    1 type  1   force =    -0.00000000   -0.00000000    0.00000000
     atom    2 type  1   force =     0.00000000    0.00000000   -0.00000000
     The non-local contrib.  to forces
     atom    1 type  1   force =     0.00000000    0.00000000    0.00000000
     atom    2 type  1   force =    -0.00000000   -0.00000000   -0.00000000
     The ionic contribution  to forces
     atom    1 type  1   force =     0.00000000    0.00000000   -0.00000000
     atom    2 type  1   force =    -0.00000000   -0.00000000    0.00000000
     The local contribution  to forces
     atom    1 type  1   force =    -0.00000000   -0.00000000   -0.00000000
     atom    2 type  1   force =     0.00000000    0.00000000    0.00000000
     The core correction contribution to forces
     atom    1 type  1   force =    -0.00000000    0.00000000   -0.00000000
     atom    2 type  1   force =     0.00000000   -0.00000000    0.00000000
     The Hubbard contrib.    to forces
     atom    1 type  1   force =     0.00000000    0.00000000    0.00000000
     atom    2 type  1   force =     0.00000000    0.00000000    0.00000000
     The SCF correction term to forces
     atom    1 type  1   force =    -0.00000000    0.00000000   -0.00000000
     atom    2 type  1   force =     0.00000000   -0.00000000    0.00000000

     Total force =     0.000000     Total SCF correction =     0.000000


     Computing stress (Cartesian axis) and pressure

          total   stress  (Ry/bohr**3)                   (kbar)     P=        0.02
   0.00000012   0.00000000  -0.00000000            0.02        0.00       -0.00
   0.00000000   0.00000012   0.00000000            0.00        0.02        0.00
  -0.00000000   0.00000000   0.00000012           -0.00        0.00        0.02

     kinetic stress (kbar)   2144.43     -0.00      0.00
                               -0.00   2144.43     -0.00
                                0.00     -0.00   2144.43

     local   stress (kbar)     31.36      0.00      0.00
                                0.00     31.36      0.00
                                0.00      0.00     31.36

     nonloc. stress (kbar)   1563.49     -0.00      0.00
                               -0.00   1563.49      0.00
                                0.00      0.00   1563.49

     hartree stress (kbar)    198.84     -0.00      0.00
                               -0.00    198.84     -0.00
                                0.00     -0.00    198.84

     exc-cor stress (kbar)   2887.39      0.00      0.00
                                0.00   2887.39      0.00
                                0.00      0.00   2887.39

     corecor stress (kbar)  -3861.85      0.00      0.00
                                0.00  -3861.85     -0.00
                                0.00     -0.00  -3861.85

     ewald   stress (kbar)  -2963.64     -0.00     -0.00
                               -0.00  -2963.64      0.00
                               -0.00      0.00  -2963.64

     hubbard stress (kbar)      0.00      0.00      0.00
                                0.00      0.00      0.00
                                0.00      0.00      0.00

     DFT-D   stress (kbar)      0.00      0.00      0.00
                                0.00      0.00      0.00
                                0.00      0.00      0.00

     XDM     stress (kbar)      0.00      0.00      0.00
                                0.00      0.00      0.00
                                0.00      0.00      0.00

     dft-nl  stress (kbar)      0.00      0.00      0.00
                                0.00      0.00      0.00
                                0.00      0.00      0.00

     TS-vdW  stress (kbar)      0.00      0.00      0.00
                                0.00      0.00      0.00
                                0.00      0.00      0.00

     MDB     stress (kbar)      0.00      0.00      0.00
                                0.00      0.00      0.00
                                0.00      0.00      0.00

     3D-RISM stress (kbar)      0.00      0.00      0.00
                                0.00      0.00      0.00
                                0.00      0.00      0.00


     Writing all to output data dir ./out/silicon.save/ :
     XML data file, charge density, pseudopotentials, collected wavefunctions

     init_run     :      0.59s CPU      0.65s WALL (       2 calls)
     electrons    :      6.20s CPU      6.53s WALL (       5 calls)
     update_pot   :      0.18s CPU      0.19s WALL (       3 calls)
     forces       :      0.25s CPU      0.25s WALL (       5 calls)
     stress       :      0.96s CPU      0.96s WALL (       5 calls)

     Called by init_run:
     wfcinit      :      0.08s CPU      0.09s WALL (       2 calls)
     wfcinit:atom :      0.00s CPU      0.00s WALL (      56 calls)
     wfcinit:wfcr :      0.07s CPU      0.08s WALL (      56 calls)
     potinit      :      0.21s CPU      0.24s WALL (       2 calls)
     hinit0       :      0.21s CPU      0.22s WALL (       2 calls)

     Called by electrons:
     c_bands      :      2.72s CPU      2.88s WALL (      35 calls)
     sum_band     :      1.04s CPU      1.08s WALL (      35 calls)
     v_of_rho     :      0.18s CPU      0.19s WALL (      36 calls)
     v_h          :      0.01s CPU      0.01s WALL (      36 calls)
     v_xc         :      0.22s CPU      0.24s WALL (      46 calls)
     newd         :      0.72s CPU      0.76s WALL (      36 calls)
     PAW_pot      :      2.01s CPU      2.13s WALL (      39 calls)
     mix_rho      :      0.02s CPU      0.02s WALL (      35 calls)

     Called by c_bands:
     init_us_2    :      0.12s CPU      0.13s WALL (    2380 calls)
     cegterg      :      2.44s CPU      2.58s WALL (     980 calls)

     Called by sum_band:
     sum_band:wei :      0.00s CPU      0.00s WALL (      35 calls)
     sum_band:loo :      0.31s CPU      0.34s WALL (      35 calls)
     sum_band:buf :      0.00s CPU      0.00s WALL (     980 calls)
     sum_band:ini :      0.05s CPU      0.05s WALL (     980 calls)
     sum_band:cal :      0.06s CPU      0.07s WALL (    1064 calls)
     sum_band:bec :      0.00s CPU      0.00s WALL (    1064 calls)
     addusdens    :      0.68s CPU      0.69s WALL (      35 calls)
                                        0.00s GPU  (      35 calls)
     addusd:skk   :      0.00s CPU      0.00s WALL (      35 calls)
                                        0.00s GPU  (      35 calls)

     Called by *egterg:
     cdiaghg      :      0.07s CPU      0.07s WALL (    3964 calls)
     cegterg:over :      0.09s CPU      0.09s WALL (    3180 calls)
     cegterg:upda :      0.03s CPU      0.04s WALL (    3180 calls)
     cegterg:last :      0.07s CPU      0.08s WALL (    2739 calls)
     h_psi        :      1.96s CPU      2.07s WALL (    4216 calls)
     s_psi        :      0.19s CPU      0.21s WALL (    4216 calls)
     g_psi        :      0.01s CPU      0.01s WALL (    3180 calls)

     Called by h_psi:
     h_psi:calbec :      0.21s CPU      0.22s WALL (    4216 calls)
     vloc_psi     :      1.54s CPU      1.62s WALL (    4216 calls)
     add_vuspsi   :      0.19s CPU      0.21s WALL (    4216 calls)

     General routines
     calbec       :      0.40s CPU      0.42s WALL (    7660 calls)
     fft          :      0.25s CPU      0.27s WALL (     590 calls)
     ffts         :      0.11s CPU      0.11s WALL (      71 calls)
     fftw         :      1.54s CPU      1.62s WALL (   31740 calls)
     interpolate  :      0.11s CPU      0.11s WALL (      36 calls)

     Parallel routines

     PAW routines
     PAW_pot      :      2.01s CPU      2.13s WALL (      39 calls)
     PAW_symme    :      0.01s CPU      0.02s WALL (      74 calls)

     PWSCF        :      8.51s CPU      8.94s WALL


   This run was terminated on:   6:27:45   7Jul2025            

=------------------------------------------------------------------------------=
   JOB DONE.
=------------------------------------------------------------------------------=
