
     Program PWSCF v.7.4.1 starts on  2Jul2025 at  8:52:24 

     This program is part of the open-source Quantum ESPRESSO suite
     for quantum simulation of materials; please cite
         "P. Giannozzi et al., J. Phys.:Condens. Matter 21 395502 (2009);
         "P. Giannozzi et al., J. Phys.:Condens. Matter 29 465901 (2017);
         "P. Giannozzi et al., J. Chem. Phys. 152 154105 (2020);
          URL http://www.quantum-espresso.org", 
     in publications or presentations arising from this work. More details at
     http://www.quantum-espresso.org/quote

     Parallel version (MPI & OpenMP), running on      72 processor cores
     Number of MPI processes:                 6
     Threads/MPI process:                    12

     MPI processes distributed on     1 nodes
     677 MiB available memory on the printing compute node when the environment starts

     Reading input from o2_1.9.in

     Current dimensions of program PWSCF are:
     Max number of different atomic species (ntypx) = 10
     Max number of k-points (npk) =  40000
     Max angular momentum in pseudopotentials (lmaxx) =  4
     file O.pbe-n-kjpaw_psl.1.0.0.UPF: wavefunction(s)  2S 2P renormalized

     R & G space division:  proc/nbgrp/npool/nimage =       6
     Subspace diagonalization in iterative solution of the eigenvalue problem:
     a serial algorithm will be used


     Parallelization info
     --------------------
     sticks:   dense  smooth     PW     G-vecs:    dense   smooth      PW
     Min         316     316     80                10444    10444    1300
     Max         317     317     81                10445    10445    1303
     Sum        1901    1901    481                62669    62669    7809

     Using Slab Decomposition



     bravais-lattice index     =            1
     lattice parameter (alat)  =      10.0000  a.u.
     unit-cell volume          =    1000.0000 (a.u.)^3
     number of atoms/cell      =            2
     number of atomic types    =            1
     number of electrons       =        12.00
     number of Kohn-Sham states=           10
     kinetic-energy cutoff     =      60.0000  Ry
     charge density cutoff     =     240.0000  Ry
     scf convergence threshold =      1.0E-08
     mixing beta               =       0.7000
     number of iterations used =            8  plain     mixing
     Exchange-correlation= SLA  PW   PBX  PBC
                           (   1   4   3   4   0   0   0)

     celldm(1)=  10.000000  celldm(2)=   0.000000  celldm(3)=   0.000000
     celldm(4)=   0.000000  celldm(5)=   0.000000  celldm(6)=   0.000000

     crystal axes: (cart. coord. in units of alat)
               a(1) = (   1.000000   0.000000   0.000000 )  
               a(2) = (   0.000000   1.000000   0.000000 )  
               a(3) = (   0.000000   0.000000   1.000000 )  

     reciprocal axes: (cart. coord. in units 2 pi/alat)
               b(1) = (  1.000000  0.000000  0.000000 )  
               b(2) = (  0.000000  1.000000  0.000000 )  
               b(3) = (  0.000000  0.000000  1.000000 )  


     PseudoPot. # 1 for O  read from file:
     ./O.pbe-n-kjpaw_psl.1.0.0.UPF
     MD5 check sum: e99d9cef9b487d1ca56f5b95ecd0fd7a
     Pseudo is Projector augmented-wave + core cor, Zval =  6.0
     Generated using &quot;atomic&quot; code by A. Dal Corso  v.6.3
     Shape of augmentation charge: PSQ
     Using radial grid of 1095 points,  4 beta functions with: 
                l(1) =   0
                l(2) =   0
                l(3) =   1
                l(4) =   1
     Q(r) pseudized with 0 coefficients 


     atomic species   valence    mass     pseudopotential
     O                 6.00    15.99900     O ( 1.00)

     Starting magnetic structure 
     atomic species   magnetization
     O               0.167

     16 Sym. Ops., with inversion, found


                                    s                        frac. trans.

      isym =  1     identity                                     

 cryst.   s( 1) = (     1          0          0      )
                  (     0          1          0      )
                  (     0          0          1      )

 cart.    s( 1) = (  1.0000000  0.0000000  0.0000000 )
                  (  0.0000000  1.0000000  0.0000000 )
                  (  0.0000000  0.0000000  1.0000000 )


      isym =  2     180 deg rotation - cart. axis [0,0,1]        

 cryst.   s( 2) = (    -1          0          0      )
                  (     0         -1          0      )
                  (     0          0          1      )

 cart.    s( 2) = ( -1.0000000  0.0000000  0.0000000 )
                  (  0.0000000 -1.0000000  0.0000000 )
                  (  0.0000000  0.0000000  1.0000000 )


      isym =  3     180 deg rotation - cart. axis [0,1,0]        

 cryst.   s( 3) = (    -1          0          0      )
                  (     0          1          0      )
                  (     0          0         -1      )

 cart.    s( 3) = ( -1.0000000  0.0000000  0.0000000 )
                  (  0.0000000  1.0000000  0.0000000 )
                  (  0.0000000  0.0000000 -1.0000000 )


      isym =  4     180 deg rotation - cart. axis [1,0,0]        

 cryst.   s( 4) = (     1          0          0      )
                  (     0         -1          0      )
                  (     0          0         -1      )

 cart.    s( 4) = (  1.0000000  0.0000000  0.0000000 )
                  (  0.0000000 -1.0000000  0.0000000 )
                  (  0.0000000  0.0000000 -1.0000000 )


      isym =  5     180 deg rotation - cart. axis [1,1,0]        

 cryst.   s( 5) = (     0          1          0      )
                  (     1          0          0      )
                  (     0          0         -1      )

 cart.    s( 5) = (  0.0000000  1.0000000  0.0000000 )
                  (  1.0000000  0.0000000  0.0000000 )
                  (  0.0000000  0.0000000 -1.0000000 )


      isym =  6     180 deg rotation - cart. axis [1,-1,0]       

 cryst.   s( 6) = (     0         -1          0      )
                  (    -1          0          0      )
                  (     0          0         -1      )

 cart.    s( 6) = (  0.0000000 -1.0000000  0.0000000 )
                  ( -1.0000000  0.0000000  0.0000000 )
                  (  0.0000000  0.0000000 -1.0000000 )


      isym =  7      90 deg rotation - cart. axis [0,0,-1]       

 cryst.   s( 7) = (     0         -1          0      )
                  (     1          0          0      )
                  (     0          0          1      )

 cart.    s( 7) = (  0.0000000  1.0000000  0.0000000 )
                  ( -1.0000000  0.0000000  0.0000000 )
                  (  0.0000000  0.0000000  1.0000000 )


      isym =  8      90 deg rotation - cart. axis [0,0,1]        

 cryst.   s( 8) = (     0          1          0      )
                  (    -1          0          0      )
                  (     0          0          1      )

 cart.    s( 8) = (  0.0000000 -1.0000000  0.0000000 )
                  (  1.0000000  0.0000000  0.0000000 )
                  (  0.0000000  0.0000000  1.0000000 )


      isym =  9     inversion                                    

 cryst.   s( 9) = (    -1          0          0      )
                  (     0         -1          0      )
                  (     0          0         -1      )

 cart.    s( 9) = ( -1.0000000  0.0000000  0.0000000 )
                  (  0.0000000 -1.0000000  0.0000000 )
                  (  0.0000000  0.0000000 -1.0000000 )


      isym = 10     inv. 180 deg rotation - cart. axis [0,0,1]   

 cryst.   s(10) = (     1          0          0      )
                  (     0          1          0      )
                  (     0          0         -1      )

 cart.    s(10) = (  1.0000000  0.0000000  0.0000000 )
                  (  0.0000000  1.0000000  0.0000000 )
                  (  0.0000000  0.0000000 -1.0000000 )


      isym = 11     inv. 180 deg rotation - cart. axis [0,1,0]   

 cryst.   s(11) = (     1          0          0      )
                  (     0         -1          0      )
                  (     0          0          1      )

 cart.    s(11) = (  1.0000000  0.0000000  0.0000000 )
                  (  0.0000000 -1.0000000  0.0000000 )
                  (  0.0000000  0.0000000  1.0000000 )


      isym = 12     inv. 180 deg rotation - cart. axis [1,0,0]   

 cryst.   s(12) = (    -1          0          0      )
                  (     0          1          0      )
                  (     0          0          1      )

 cart.    s(12) = ( -1.0000000  0.0000000  0.0000000 )
                  (  0.0000000  1.0000000  0.0000000 )
                  (  0.0000000  0.0000000  1.0000000 )


      isym = 13     inv. 180 deg rotation - cart. axis [1,1,0]   

 cryst.   s(13) = (     0         -1          0      )
                  (    -1          0          0      )
                  (     0          0          1      )

 cart.    s(13) = (  0.0000000 -1.0000000  0.0000000 )
                  ( -1.0000000  0.0000000  0.0000000 )
                  (  0.0000000  0.0000000  1.0000000 )


      isym = 14     inv. 180 deg rotation - cart. axis [1,-1,0]  

 cryst.   s(14) = (     0          1          0      )
                  (     1          0          0      )
                  (     0          0          1      )

 cart.    s(14) = (  0.0000000  1.0000000  0.0000000 )
                  (  1.0000000  0.0000000  0.0000000 )
                  (  0.0000000  0.0000000  1.0000000 )


      isym = 15     inv.  90 deg rotation - cart. axis [0,0,-1]  

 cryst.   s(15) = (     0          1          0      )
                  (    -1          0          0      )
                  (     0          0         -1      )

 cart.    s(15) = (  0.0000000 -1.0000000  0.0000000 )
                  (  1.0000000  0.0000000  0.0000000 )
                  (  0.0000000  0.0000000 -1.0000000 )


      isym = 16     inv.  90 deg rotation - cart. axis [0,0,1]   

 cryst.   s(16) = (     0         -1          0      )
                  (     1          0          0      )
                  (     0          0         -1      )

 cart.    s(16) = (  0.0000000  1.0000000  0.0000000 )
                  ( -1.0000000  0.0000000  0.0000000 )
                  (  0.0000000  0.0000000 -1.0000000 )


     point group D_4h(4/mmm)
     there are 10 classes
     the character table:

       E     2C4   C2    2C2'  2C2'' i     2S4   s_h   2s_v  2s_d 
A_1g   1.00  1.00  1.00  1.00  1.00  1.00  1.00  1.00  1.00  1.00
A_2g   1.00  1.00  1.00 -1.00 -1.00  1.00  1.00  1.00 -1.00 -1.00
B_1g   1.00 -1.00  1.00  1.00 -1.00  1.00 -1.00  1.00  1.00 -1.00
B_2g   1.00 -1.00  1.00 -1.00  1.00  1.00 -1.00  1.00 -1.00  1.00
E_g    2.00  0.00 -2.00  0.00  0.00  2.00  0.00 -2.00  0.00  0.00
A_1u   1.00  1.00  1.00  1.00  1.00 -1.00 -1.00 -1.00 -1.00 -1.00
A_2u   1.00  1.00  1.00 -1.00 -1.00 -1.00 -1.00 -1.00  1.00  1.00
B_1u   1.00 -1.00  1.00  1.00 -1.00 -1.00  1.00 -1.00 -1.00  1.00
B_2u   1.00 -1.00  1.00 -1.00  1.00 -1.00  1.00 -1.00  1.00 -1.00
E_u    2.00  0.00 -2.00  0.00  0.00 -2.00  0.00  2.00  0.00  0.00

     the symmetry operations in each class and the name of the first element:

     E        1
          identity                                               
     2C4      7    8
           90 deg rotation - cart. axis [0,0,-1]                 
     C2       2
          180 deg rotation - cart. axis [0,0,1]                  
     2C2'     3    4
          180 deg rotation - cart. axis [0,1,0]                  
     2C2''    5    6
          180 deg rotation - cart. axis [1,1,0]                  
     i        9
          inversion                                              
     2S4     15   16
          inv.  90 deg rotation - cart. axis [0,0,-1]            
     s_h     10
          inv. 180 deg rotation - cart. axis [0,0,1]             
     2s_v    11   12
          inv. 180 deg rotation - cart. axis [0,1,0]             
     2s_d    13   14
          inv. 180 deg rotation - cart. axis [1,1,0]             

   Cartesian axes

     site n.     atom                  positions (alat units)
         1        O      tau(   1) = (   0.0000000   0.0000000   0.6795230  )
         2        O      tau(   2) = (   0.0000000   0.0000000   0.3204770  )

   Crystallographic axes

     site n.     atom                  positions (cryst. coord.)
         1        O      tau(   1) = (  0.0000000  0.0000000  0.6795230  )
         2        O      tau(   2) = (  0.0000000  0.0000000  0.3204770  )

     number of k points=     1  Gaussian smearing, width (Ry)=  0.0100
                       cart. coord. in units 2pi/alat
        k(    1) = (   0.0000000   0.0000000   0.0000000), wk =   1.0000000

                       cryst. coord.
        k(    1) = (   0.0000000   0.0000000   0.0000000), wk =   1.0000000

     Dense  grid:    62669 G-vectors     FFT dimensions: (  50,  50,  50)

     Dynamical RAM for                 wfc:       0.20 MB

     Dynamical RAM for     wfc (w. buffer):       0.60 MB

     Dynamical RAM for           str. fact:       0.16 MB

     Dynamical RAM for           local pot:       0.00 MB

     Dynamical RAM for          nlocal pot:       0.32 MB

     Dynamical RAM for                qrad:       0.36 MB

     Dynamical RAM for          rho,v,vnew:       1.99 MB

     Dynamical RAM for               rhoin:       0.66 MB

     Dynamical RAM for            rho*nmix:       5.10 MB

     Dynamical RAM for           G-vectors:       0.68 MB

     Dynamical RAM for          h,s,v(r/c):       0.02 MB

     Dynamical RAM for          <psi|beta>:       0.00 MB

     Dynamical RAM for                 psi:       0.40 MB

     Dynamical RAM for                hpsi:       0.40 MB

     Dynamical RAM for                spsi:       0.40 MB

     Dynamical RAM for      wfcinit/wfcrot:       0.40 MB

     Dynamical RAM for           addusdens:       7.33 MB

     Estimated static dynamical RAM per process >       6.11 MB

     Estimated max dynamical RAM per process >      18.54 MB

     Estimated total dynamical RAM >     111.22 MB

     Check: negative core charge=   -0.000007
     Generating pointlists ...
     new r_m :   0.1481 (alat units)  1.4811 (a.u.) for type    1

     Initial potential from superposition of free atoms

     starting charge      12.0000, renormalised to      12.0000

     negative rho (up, down):  1.742E-04 1.244E-04
     Starting wfcs are    8 randomized atomic wfcs +    2 random wfcs
     Checking if some PAW data can be deallocated... 

     total cpu time spent up to now is       33.9 secs

     Self-consistent Calculation

     iteration #  1     ecut=    60.00 Ry     beta= 0.70
     Davidson diagonalization with overlap

---- Real-time Memory Report at c_bands before calling an iterative solver
            43 MiB given to the printing process from OS
             0 MiB allocation reported by mallinfo(arena+hblkhd)
           580 MiB available memory on the node where the printing process lives
------------------
     ethr =  1.00E-02,  avg # of iterations =  7.0

     Threshold (ethr) on eigenvalues was too large:
     Diagonalizing with lowered threshold

     Davidson diagonalization with overlap

---- Real-time Memory Report at c_bands before calling an iterative solver
            46 MiB given to the printing process from OS
             0 MiB allocation reported by mallinfo(arena+hblkhd)
           546 MiB available memory on the node where the printing process lives
------------------
     ethr =  4.36E-04,  avg # of iterations =  7.5

     negative rho (up, down):  2.767E-04 9.440E-05

     total cpu time spent up to now is       88.6 secs

     total energy              =     -82.71371711 Ry
     estimated scf accuracy    <       0.04264247 Ry

     total magnetization       =     2.00 Bohr mag/cell
     absolute magnetization    =     2.02 Bohr mag/cell

     iteration #  2     ecut=    60.00 Ry     beta= 0.70
     Davidson diagonalization with overlap

---- Real-time Memory Report at c_bands before calling an iterative solver
            51 MiB given to the printing process from OS
             0 MiB allocation reported by mallinfo(arena+hblkhd)
           493 MiB available memory on the node where the printing process lives
------------------
     ethr =  3.55E-04,  avg # of iterations =  2.0

     negative rho (up, down):  3.870E-04 1.033E-04

     total cpu time spent up to now is      110.3 secs

     total energy              =     -82.71851507 Ry
     estimated scf accuracy    <       0.00303091 Ry

     total magnetization       =     2.00 Bohr mag/cell
     absolute magnetization    =     2.03 Bohr mag/cell

     iteration #  3     ecut=    60.00 Ry     beta= 0.70
     Davidson diagonalization with overlap

---- Real-time Memory Report at c_bands before calling an iterative solver
            52 MiB given to the printing process from OS
             0 MiB allocation reported by mallinfo(arena+hblkhd)
           498 MiB available memory on the node where the printing process lives
------------------
     ethr =  2.53E-05,  avg # of iterations = 13.5

     negative rho (up, down):  4.456E-04 1.058E-04

     total cpu time spent up to now is      152.1 secs

     total energy              =     -82.72068570 Ry
     estimated scf accuracy    <       0.00069383 Ry

     total magnetization       =     2.00 Bohr mag/cell
     absolute magnetization    =     2.04 Bohr mag/cell

     iteration #  4     ecut=    60.00 Ry     beta= 0.70
     Davidson diagonalization with overlap

---- Real-time Memory Report at c_bands before calling an iterative solver
            52 MiB given to the printing process from OS
             0 MiB allocation reported by mallinfo(arena+hblkhd)
           479 MiB available memory on the node where the printing process lives
------------------
     ethr =  5.78E-06,  avg # of iterations =  9.0

     negative rho (up, down):  4.601E-04 1.011E-04

     total cpu time spent up to now is      185.6 secs

     total energy              =     -82.72106068 Ry
     estimated scf accuracy    <       0.00008811 Ry

     total magnetization       =     2.00 Bohr mag/cell
     absolute magnetization    =     2.05 Bohr mag/cell

     iteration #  5     ecut=    60.00 Ry     beta= 0.70
     Davidson diagonalization with overlap

---- Real-time Memory Report at c_bands before calling an iterative solver
            53 MiB given to the printing process from OS
             0 MiB allocation reported by mallinfo(arena+hblkhd)
           477 MiB available memory on the node where the printing process lives
------------------
     ethr =  7.34E-07,  avg # of iterations =  4.0

     negative rho (up, down):  4.565E-04 9.804E-05

     total cpu time spent up to now is      212.6 secs

     total energy              =     -82.72107439 Ry
     estimated scf accuracy    <       0.00001591 Ry

     total magnetization       =     2.00 Bohr mag/cell
     absolute magnetization    =     2.05 Bohr mag/cell

     iteration #  6     ecut=    60.00 Ry     beta= 0.70
     Davidson diagonalization with overlap

---- Real-time Memory Report at c_bands before calling an iterative solver
            54 MiB given to the printing process from OS
             0 MiB allocation reported by mallinfo(arena+hblkhd)
           474 MiB available memory on the node where the printing process lives
------------------
     ethr =  1.33E-07,  avg # of iterations =  4.5

     negative rho (up, down):  4.591E-04 9.784E-05

     total cpu time spent up to now is      244.7 secs

     total energy              =     -82.72108471 Ry
     estimated scf accuracy    <       0.00000934 Ry

     total magnetization       =     2.00 Bohr mag/cell
     absolute magnetization    =     2.05 Bohr mag/cell

     iteration #  7     ecut=    60.00 Ry     beta= 0.70
     Davidson diagonalization with overlap

---- Real-time Memory Report at c_bands before calling an iterative solver
            54 MiB given to the printing process from OS
             0 MiB allocation reported by mallinfo(arena+hblkhd)
           467 MiB available memory on the node where the printing process lives
------------------
     ethr =  7.78E-08,  avg # of iterations =  2.0

     negative rho (up, down):  4.596E-04 9.809E-05

     total cpu time spent up to now is      266.0 secs

     total energy              =     -82.72108370 Ry
     estimated scf accuracy    <       0.00000217 Ry

     total magnetization       =     2.00 Bohr mag/cell
     absolute magnetization    =     2.05 Bohr mag/cell

     iteration #  8     ecut=    60.00 Ry     beta= 0.70
     Davidson diagonalization with overlap

---- Real-time Memory Report at c_bands before calling an iterative solver
            55 MiB given to the printing process from OS
             0 MiB allocation reported by mallinfo(arena+hblkhd)
           455 MiB available memory on the node where the printing process lives
------------------
     ethr =  1.81E-08,  avg # of iterations =  4.5

     negative rho (up, down):  4.592E-04 9.798E-05

     total cpu time spent up to now is      297.9 secs

     total energy              =     -82.72108616 Ry
     estimated scf accuracy    <       0.00000205 Ry

     total magnetization       =     2.00 Bohr mag/cell
     absolute magnetization    =     2.05 Bohr mag/cell

     iteration #  9     ecut=    60.00 Ry     beta= 0.70
     Davidson diagonalization with overlap

---- Real-time Memory Report at c_bands before calling an iterative solver
            56 MiB given to the printing process from OS
             0 MiB allocation reported by mallinfo(arena+hblkhd)
           440 MiB available memory on the node where the printing process lives
------------------
     ethr =  1.71E-08,  avg # of iterations =  1.0

     negative rho (up, down):  4.591E-04 9.785E-05

     total cpu time spent up to now is      317.9 secs

     total energy              =     -82.72108570 Ry
     estimated scf accuracy    <       0.00000116 Ry

     total magnetization       =     2.00 Bohr mag/cell
     absolute magnetization    =     2.05 Bohr mag/cell

     iteration # 10     ecut=    60.00 Ry     beta= 0.70
     Davidson diagonalization with overlap

---- Real-time Memory Report at c_bands before calling an iterative solver
            56 MiB given to the printing process from OS
             0 MiB allocation reported by mallinfo(arena+hblkhd)
           496 MiB available memory on the node where the printing process lives
------------------
     ethr =  9.65E-09,  avg # of iterations =  2.0

     negative rho (up, down):  4.591E-04 9.785E-05

     total cpu time spent up to now is      340.0 secs

     total energy              =     -82.72108581 Ry
     estimated scf accuracy    <       0.00000022 Ry

     total magnetization       =     2.00 Bohr mag/cell
     absolute magnetization    =     2.05 Bohr mag/cell

     iteration # 11     ecut=    60.00 Ry     beta= 0.70
     Davidson diagonalization with overlap

---- Real-time Memory Report at c_bands before calling an iterative solver
            56 MiB given to the printing process from OS
             0 MiB allocation reported by mallinfo(arena+hblkhd)
           480 MiB available memory on the node where the printing process lives
------------------
     ethr =  1.86E-09,  avg # of iterations =  4.0

     negative rho (up, down):  4.592E-04 9.783E-05

     total cpu time spent up to now is      367.8 secs

     total energy              =     -82.72108592 Ry
     estimated scf accuracy    <       0.00000004 Ry

     total magnetization       =     2.00 Bohr mag/cell
     absolute magnetization    =     2.05 Bohr mag/cell

     iteration # 12     ecut=    60.00 Ry     beta= 0.70
     Davidson diagonalization with overlap

---- Real-time Memory Report at c_bands before calling an iterative solver
            56 MiB given to the printing process from OS
             0 MiB allocation reported by mallinfo(arena+hblkhd)
           485 MiB available memory on the node where the printing process lives
------------------
     ethr =  3.09E-10,  avg # of iterations =  3.0

     negative rho (up, down):  4.591E-04 9.776E-05

     Magnetic moment per site  (integrated on atomic sphere of radius R)
     atom   1 (R=0.148)  charge=  4.6984  magn=  0.8583
     atom   2 (R=0.148)  charge=  4.6984  magn=  0.8583

     total cpu time spent up to now is      391.0 secs

     End of self-consistent calculation

 ------ SPIN UP ------------


          k = 0.0000 0.0000 0.0000 (  7809 PWs)   bands (ev):

   -24.8908 -22.8734 -10.5622  -9.4937  -9.4937  -8.2477  -8.2477  -5.9318
    -0.0088   4.4505

     occupation numbers 
     1.0000   1.0000   1.0000   1.0000   1.0000   1.0000   1.0000   0.0000
     0.0000   0.0000

 ------ SPIN DOWN ----------


          k = 0.0000 0.0000 0.0000 (  7809 PWs)   bands (ev):

   -23.3523 -21.1314  -9.9454  -7.5744  -7.5744  -6.1096  -6.1096  -5.1304
     0.0816   4.5057

     occupation numbers 
     1.0000   1.0000   1.0000   1.0000   1.0000   0.0000   0.0000   0.0000
     0.0000   0.0000

     the Fermi energy is    -6.9306 ev

!    total energy              =     -82.72108593 Ry
     total all-electron energy =      -300.414866 Ry
     estimated scf accuracy    <          8.1E-09 Ry
     smearing contrib. (-TS)   =      -0.00000000 Ry
     internal energy E=F+TS    =     -82.72108593 Ry

     The total energy is F=E-TS. E is the sum of the following terms:
     one-electron contribution =     -68.08526633 Ry
     hartree contribution      =      36.97994060 Ry
     xc contribution           =     -13.93272341 Ry
     ewald contribution        =     -18.47236271 Ry
     one-center paw contrib.   =     -19.21067407 Ry
      -> PAW hartree energy AE =      21.35094201 Ry
      -> PAW hartree energy PS =     -21.31864580 Ry
      -> PAW xc energy AE      =     -15.96944507 Ry
      -> PAW xc energy PS      =       6.33181182 Ry
      -> total E_H with PAW    =      37.01223681 Ry
      -> total E_XC with PAW   =     -23.57035665 Ry

     total magnetization       =     2.00 Bohr mag/cell
     absolute magnetization    =     2.05 Bohr mag/cell

     convergence has been achieved in  12 iterations

     Writing all to output data dir ./tmp_1.9/o2.save/ :
     XML data file, charge density, pseudopotentials, collected wavefunctions

     init_run     :     65.02s CPU     33.17s WALL (       1 calls)
     electrons    :    707.29s CPU    357.06s WALL (       1 calls)

     Called by init_run:
     wfcinit      :     13.15s CPU      6.65s WALL (       1 calls)
     wfcinit:atom :      0.17s CPU      0.09s WALL (       2 calls)
     wfcinit:wfcr :     12.87s CPU      6.50s WALL (       2 calls)
     potinit      :      6.98s CPU      3.43s WALL (       1 calls)
     hinit0       :     43.49s CPU     22.34s WALL (       1 calls)

     Called by electrons:
     c_bands      :    533.19s CPU    268.87s WALL (      13 calls)
     sum_band     :     84.91s CPU     42.78s WALL (      13 calls)
     v_of_rho     :     42.55s CPU     21.71s WALL (      13 calls)
     v_h          :      4.46s CPU      2.26s WALL (      13 calls)
     v_xc         :     38.09s CPU     19.45s WALL (      13 calls)
     newd         :     10.35s CPU      5.31s WALL (      13 calls)
     PAW_pot      :     37.07s CPU     18.62s WALL (      13 calls)
     mix_rho      :      5.77s CPU      2.99s WALL (      13 calls)

     Called by c_bands:
     init_us_2    :      3.12s CPU      1.50s WALL (      54 calls)
     cegterg      :    529.04s CPU    266.72s WALL (      26 calls)

     Called by sum_band:
     sum_band:wei :      0.00s CPU      0.00s WALL (      13 calls)
     sum_band:loo :     71.80s CPU     36.18s WALL (      13 calls)
     sum_band:buf :      0.00s CPU      0.01s WALL (      26 calls)
     sum_band:ini :      1.49s CPU      0.72s WALL (      26 calls)
     sum_band:cal :      1.22s CPU      0.71s WALL (      26 calls)
     sum_band:bec :      0.00s CPU      0.00s WALL (      26 calls)
     addusdens    :      1.41s CPU      0.70s WALL (      13 calls)
                                        0.00s GPU  (      13 calls)
     addusd:skk   :      0.00s CPU      0.00s WALL (      13 calls)
                                        0.00s GPU  (      13 calls)

     Called by *egterg:
     cdiaghg      :      0.09s CPU      0.07s WALL (     152 calls)
     cegterg:over :      6.53s CPU      3.25s WALL (     128 calls)
     cegterg:upda :      7.42s CPU      3.84s WALL (     128 calls)
     cegterg:last :      0.11s CPU      0.10s WALL (      65 calls)
     h_psi        :    493.96s CPU    249.00s WALL (     156 calls)
     s_psi        :      0.10s CPU      0.04s WALL (     156 calls)
     g_psi        :     10.97s CPU      5.42s WALL (     128 calls)

     Called by h_psi:
     h_psi:calbec :      7.07s CPU      3.82s WALL (     156 calls)
     vloc_psi     :    473.06s CPU    238.13s WALL (     156 calls)
     add_vuspsi   :      0.09s CPU      0.10s WALL (     156 calls)

     General routines
     calbec       :      8.28s CPU      4.52s WALL (     182 calls)
     fft          :     89.80s CPU     45.79s WALL (     273 calls)
     ffts         :      4.28s CPU      2.12s WALL (      26 calls)
     fftw         :    324.62s CPU    162.78s WALL (    1822 calls)

     Parallel routines

     PAW routines
     PAW_pot      :     37.07s CPU     18.62s WALL (      13 calls)
     PAW_symme    :      0.73s CPU      0.39s WALL (      26 calls)

     PWSCF        :  12m54.22s CPU   6m31.23s WALL


   This run was terminated on:   8:58:55   2Jul2025            

=------------------------------------------------------------------------------=
   JOB DONE.
=------------------------------------------------------------------------------=
