
     Program PWSCF v.7.4.1 starts on  2Jul2025 at  7:57:58 

     This program is part of the open-source Quantum ESPRESSO suite
     for quantum simulation of materials; please cite
         "P. Giannozzi et al., J. Phys.:Condens. Matter 21 395502 (2009);
         "P. Giannozzi et al., J. Phys.:Condens. Matter 29 465901 (2017);
         "P. Giannozzi et al., J. Chem. Phys. 152 154105 (2020);
          URL http://www.quantum-espresso.org", 
     in publications or presentations arising from this work. More details at
     http://www.quantum-espresso.org/quote

     Parallel version (MPI & OpenMP), running on      72 processor cores
     Number of MPI processes:                 6
     Threads/MPI process:                    12

     MPI processes distributed on     1 nodes
     618 MiB available memory on the printing compute node when the environment starts

     Reading input from o2_1.1.in

     Current dimensions of program PWSCF are:
     Max number of different atomic species (ntypx) = 10
     Max number of k-points (npk) =  40000
     Max angular momentum in pseudopotentials (lmaxx) =  4
     file O.pbe-n-kjpaw_psl.1.0.0.UPF: wavefunction(s)  2S 2P renormalized

     R & G space division:  proc/nbgrp/npool/nimage =       6
     Subspace diagonalization in iterative solution of the eigenvalue problem:
     a serial algorithm will be used


     Parallelization info
     --------------------
     sticks:   dense  smooth     PW     G-vecs:    dense   smooth      PW
     Min         316     316     80                10444    10444    1300
     Max         317     317     81                10445    10445    1303
     Sum        1901    1901    481                62669    62669    7809

     Using Slab Decomposition



     bravais-lattice index     =            1
     lattice parameter (alat)  =      10.0000  a.u.
     unit-cell volume          =    1000.0000 (a.u.)^3
     number of atoms/cell      =            2
     number of atomic types    =            1
     number of electrons       =        12.00
     number of Kohn-Sham states=           10
     kinetic-energy cutoff     =      60.0000  Ry
     charge density cutoff     =     240.0000  Ry
     scf convergence threshold =      1.0E-08
     mixing beta               =       0.7000
     number of iterations used =            8  plain     mixing
     Exchange-correlation= SLA  PW   PBX  PBC
                           (   1   4   3   4   0   0   0)

     celldm(1)=  10.000000  celldm(2)=   0.000000  celldm(3)=   0.000000
     celldm(4)=   0.000000  celldm(5)=   0.000000  celldm(6)=   0.000000

     crystal axes: (cart. coord. in units of alat)
               a(1) = (   1.000000   0.000000   0.000000 )  
               a(2) = (   0.000000   1.000000   0.000000 )  
               a(3) = (   0.000000   0.000000   1.000000 )  

     reciprocal axes: (cart. coord. in units 2 pi/alat)
               b(1) = (  1.000000  0.000000  0.000000 )  
               b(2) = (  0.000000  1.000000  0.000000 )  
               b(3) = (  0.000000  0.000000  1.000000 )  


     PseudoPot. # 1 for O  read from file:
     ./O.pbe-n-kjpaw_psl.1.0.0.UPF
     MD5 check sum: e99d9cef9b487d1ca56f5b95ecd0fd7a
     Pseudo is Projector augmented-wave + core cor, Zval =  6.0
     Generated using &quot;atomic&quot; code by A. Dal Corso  v.6.3
     Shape of augmentation charge: PSQ
     Using radial grid of 1095 points,  4 beta functions with: 
                l(1) =   0
                l(2) =   0
                l(3) =   1
                l(4) =   1
     Q(r) pseudized with 0 coefficients 


     atomic species   valence    mass     pseudopotential
     O                 6.00    15.99900     O ( 1.00)

     Starting magnetic structure 
     atomic species   magnetization
     O               0.167

     16 Sym. Ops., with inversion, found


                                    s                        frac. trans.

      isym =  1     identity                                     

 cryst.   s( 1) = (     1          0          0      )
                  (     0          1          0      )
                  (     0          0          1      )

 cart.    s( 1) = (  1.0000000  0.0000000  0.0000000 )
                  (  0.0000000  1.0000000  0.0000000 )
                  (  0.0000000  0.0000000  1.0000000 )


      isym =  2     180 deg rotation - cart. axis [0,0,1]        

 cryst.   s( 2) = (    -1          0          0      )
                  (     0         -1          0      )
                  (     0          0          1      )

 cart.    s( 2) = ( -1.0000000  0.0000000  0.0000000 )
                  (  0.0000000 -1.0000000  0.0000000 )
                  (  0.0000000  0.0000000  1.0000000 )


      isym =  3     180 deg rotation - cart. axis [0,1,0]        

 cryst.   s( 3) = (    -1          0          0      )
                  (     0          1          0      )
                  (     0          0         -1      )

 cart.    s( 3) = ( -1.0000000  0.0000000  0.0000000 )
                  (  0.0000000  1.0000000  0.0000000 )
                  (  0.0000000  0.0000000 -1.0000000 )


      isym =  4     180 deg rotation - cart. axis [1,0,0]        

 cryst.   s( 4) = (     1          0          0      )
                  (     0         -1          0      )
                  (     0          0         -1      )

 cart.    s( 4) = (  1.0000000  0.0000000  0.0000000 )
                  (  0.0000000 -1.0000000  0.0000000 )
                  (  0.0000000  0.0000000 -1.0000000 )


      isym =  5     180 deg rotation - cart. axis [1,1,0]        

 cryst.   s( 5) = (     0          1          0      )
                  (     1          0          0      )
                  (     0          0         -1      )

 cart.    s( 5) = (  0.0000000  1.0000000  0.0000000 )
                  (  1.0000000  0.0000000  0.0000000 )
                  (  0.0000000  0.0000000 -1.0000000 )


      isym =  6     180 deg rotation - cart. axis [1,-1,0]       

 cryst.   s( 6) = (     0         -1          0      )
                  (    -1          0          0      )
                  (     0          0         -1      )

 cart.    s( 6) = (  0.0000000 -1.0000000  0.0000000 )
                  ( -1.0000000  0.0000000  0.0000000 )
                  (  0.0000000  0.0000000 -1.0000000 )


      isym =  7      90 deg rotation - cart. axis [0,0,-1]       

 cryst.   s( 7) = (     0         -1          0      )
                  (     1          0          0      )
                  (     0          0          1      )

 cart.    s( 7) = (  0.0000000  1.0000000  0.0000000 )
                  ( -1.0000000  0.0000000  0.0000000 )
                  (  0.0000000  0.0000000  1.0000000 )


      isym =  8      90 deg rotation - cart. axis [0,0,1]        

 cryst.   s( 8) = (     0          1          0      )
                  (    -1          0          0      )
                  (     0          0          1      )

 cart.    s( 8) = (  0.0000000 -1.0000000  0.0000000 )
                  (  1.0000000  0.0000000  0.0000000 )
                  (  0.0000000  0.0000000  1.0000000 )


      isym =  9     inversion                                    

 cryst.   s( 9) = (    -1          0          0      )
                  (     0         -1          0      )
                  (     0          0         -1      )

 cart.    s( 9) = ( -1.0000000  0.0000000  0.0000000 )
                  (  0.0000000 -1.0000000  0.0000000 )
                  (  0.0000000  0.0000000 -1.0000000 )


      isym = 10     inv. 180 deg rotation - cart. axis [0,0,1]   

 cryst.   s(10) = (     1          0          0      )
                  (     0          1          0      )
                  (     0          0         -1      )

 cart.    s(10) = (  1.0000000  0.0000000  0.0000000 )
                  (  0.0000000  1.0000000  0.0000000 )
                  (  0.0000000  0.0000000 -1.0000000 )


      isym = 11     inv. 180 deg rotation - cart. axis [0,1,0]   

 cryst.   s(11) = (     1          0          0      )
                  (     0         -1          0      )
                  (     0          0          1      )

 cart.    s(11) = (  1.0000000  0.0000000  0.0000000 )
                  (  0.0000000 -1.0000000  0.0000000 )
                  (  0.0000000  0.0000000  1.0000000 )


      isym = 12     inv. 180 deg rotation - cart. axis [1,0,0]   

 cryst.   s(12) = (    -1          0          0      )
                  (     0          1          0      )
                  (     0          0          1      )

 cart.    s(12) = ( -1.0000000  0.0000000  0.0000000 )
                  (  0.0000000  1.0000000  0.0000000 )
                  (  0.0000000  0.0000000  1.0000000 )


      isym = 13     inv. 180 deg rotation - cart. axis [1,1,0]   

 cryst.   s(13) = (     0         -1          0      )
                  (    -1          0          0      )
                  (     0          0          1      )

 cart.    s(13) = (  0.0000000 -1.0000000  0.0000000 )
                  ( -1.0000000  0.0000000  0.0000000 )
                  (  0.0000000  0.0000000  1.0000000 )


      isym = 14     inv. 180 deg rotation - cart. axis [1,-1,0]  

 cryst.   s(14) = (     0          1          0      )
                  (     1          0          0      )
                  (     0          0          1      )

 cart.    s(14) = (  0.0000000  1.0000000  0.0000000 )
                  (  1.0000000  0.0000000  0.0000000 )
                  (  0.0000000  0.0000000  1.0000000 )


      isym = 15     inv.  90 deg rotation - cart. axis [0,0,-1]  

 cryst.   s(15) = (     0          1          0      )
                  (    -1          0          0      )
                  (     0          0         -1      )

 cart.    s(15) = (  0.0000000 -1.0000000  0.0000000 )
                  (  1.0000000  0.0000000  0.0000000 )
                  (  0.0000000  0.0000000 -1.0000000 )


      isym = 16     inv.  90 deg rotation - cart. axis [0,0,1]   

 cryst.   s(16) = (     0         -1          0      )
                  (     1          0          0      )
                  (     0          0         -1      )

 cart.    s(16) = (  0.0000000  1.0000000  0.0000000 )
                  ( -1.0000000  0.0000000  0.0000000 )
                  (  0.0000000  0.0000000 -1.0000000 )


     point group D_4h(4/mmm)
     there are 10 classes
     the character table:

       E     2C4   C2    2C2'  2C2'' i     2S4   s_h   2s_v  2s_d 
A_1g   1.00  1.00  1.00  1.00  1.00  1.00  1.00  1.00  1.00  1.00
A_2g   1.00  1.00  1.00 -1.00 -1.00  1.00  1.00  1.00 -1.00 -1.00
B_1g   1.00 -1.00  1.00  1.00 -1.00  1.00 -1.00  1.00  1.00 -1.00
B_2g   1.00 -1.00  1.00 -1.00  1.00  1.00 -1.00  1.00 -1.00  1.00
E_g    2.00  0.00 -2.00  0.00  0.00  2.00  0.00 -2.00  0.00  0.00
A_1u   1.00  1.00  1.00  1.00  1.00 -1.00 -1.00 -1.00 -1.00 -1.00
A_2u   1.00  1.00  1.00 -1.00 -1.00 -1.00 -1.00 -1.00  1.00  1.00
B_1u   1.00 -1.00  1.00  1.00 -1.00 -1.00  1.00 -1.00 -1.00  1.00
B_2u   1.00 -1.00  1.00 -1.00  1.00 -1.00  1.00 -1.00  1.00 -1.00
E_u    2.00  0.00 -2.00  0.00  0.00 -2.00  0.00  2.00  0.00  0.00

     the symmetry operations in each class and the name of the first element:

     E        1
          identity                                               
     2C4      7    8
           90 deg rotation - cart. axis [0,0,-1]                 
     C2       2
          180 deg rotation - cart. axis [0,0,1]                  
     2C2'     3    4
          180 deg rotation - cart. axis [0,1,0]                  
     2C2''    5    6
          180 deg rotation - cart. axis [1,1,0]                  
     i        9
          inversion                                              
     2S4     15   16
          inv.  90 deg rotation - cart. axis [0,0,-1]            
     s_h     10
          inv. 180 deg rotation - cart. axis [0,0,1]             
     2s_v    11   12
          inv. 180 deg rotation - cart. axis [0,1,0]             
     2s_d    13   14
          inv. 180 deg rotation - cart. axis [1,1,0]             

   Cartesian axes

     site n.     atom                  positions (alat units)
         1        O      tau(   1) = (   0.0000000   0.0000000   0.6039340  )
         2        O      tau(   2) = (   0.0000000   0.0000000   0.3960660  )

   Crystallographic axes

     site n.     atom                  positions (cryst. coord.)
         1        O      tau(   1) = (  0.0000000  0.0000000  0.6039340  )
         2        O      tau(   2) = (  0.0000000  0.0000000  0.3960660  )

     number of k points=     1  Gaussian smearing, width (Ry)=  0.0100
                       cart. coord. in units 2pi/alat
        k(    1) = (   0.0000000   0.0000000   0.0000000), wk =   1.0000000

                       cryst. coord.
        k(    1) = (   0.0000000   0.0000000   0.0000000), wk =   1.0000000

     Dense  grid:    62669 G-vectors     FFT dimensions: (  50,  50,  50)

     Dynamical RAM for                 wfc:       0.20 MB

     Dynamical RAM for     wfc (w. buffer):       0.60 MB

     Dynamical RAM for           str. fact:       0.16 MB

     Dynamical RAM for           local pot:       0.00 MB

     Dynamical RAM for          nlocal pot:       0.32 MB

     Dynamical RAM for                qrad:       0.36 MB

     Dynamical RAM for          rho,v,vnew:       1.99 MB

     Dynamical RAM for               rhoin:       0.66 MB

     Dynamical RAM for            rho*nmix:       5.10 MB

     Dynamical RAM for           G-vectors:       0.68 MB

     Dynamical RAM for          h,s,v(r/c):       0.02 MB

     Dynamical RAM for          <psi|beta>:       0.00 MB

     Dynamical RAM for                 psi:       0.40 MB

     Dynamical RAM for                hpsi:       0.40 MB

     Dynamical RAM for                spsi:       0.40 MB

     Dynamical RAM for      wfcinit/wfcrot:       0.40 MB

     Dynamical RAM for           addusdens:       7.33 MB

     Estimated static dynamical RAM per process >       6.11 MB

     Estimated max dynamical RAM per process >      18.54 MB

     Estimated total dynamical RAM >     111.22 MB

     Check: negative core charge=   -0.000007
     Generating pointlists ...
     new r_m :   0.0857 (alat units)  0.8575 (a.u.) for type    1

     Initial potential from superposition of free atoms

     starting charge      12.0000, renormalised to      12.0000

     negative rho (up, down):  2.374E-04 1.696E-04
     Starting wfcs are    8 randomized atomic wfcs +    2 random wfcs
     Checking if some PAW data can be deallocated... 

     total cpu time spent up to now is       34.4 secs

     Self-consistent Calculation

     iteration #  1     ecut=    60.00 Ry     beta= 0.70
     Davidson diagonalization with overlap

---- Real-time Memory Report at c_bands before calling an iterative solver
            44 MiB given to the printing process from OS
             0 MiB allocation reported by mallinfo(arena+hblkhd)
           506 MiB available memory on the node where the printing process lives
------------------
     ethr =  1.00E-02,  avg # of iterations =  7.0

     Threshold (ethr) on eigenvalues was too large:
     Diagonalizing with lowered threshold

     Davidson diagonalization with overlap

---- Real-time Memory Report at c_bands before calling an iterative solver
            48 MiB given to the printing process from OS
             0 MiB allocation reported by mallinfo(arena+hblkhd)
           461 MiB available memory on the node where the printing process lives
------------------
     ethr =  8.27E-04,  avg # of iterations =  2.0

     negative rho (up, down):  5.331E-04 2.731E-04

     total cpu time spent up to now is       89.4 secs

     total energy              =     -82.95794203 Ry
     estimated scf accuracy    <       0.08984382 Ry

     total magnetization       =     2.00 Bohr mag/cell
     absolute magnetization    =     2.01 Bohr mag/cell

     iteration #  2     ecut=    60.00 Ry     beta= 0.70
     Davidson diagonalization with overlap

---- Real-time Memory Report at c_bands before calling an iterative solver
            52 MiB given to the printing process from OS
             0 MiB allocation reported by mallinfo(arena+hblkhd)
           448 MiB available memory on the node where the printing process lives
------------------
     ethr =  7.49E-04,  avg # of iterations =  2.0

     negative rho (up, down):  6.057E-04 2.347E-04

     total cpu time spent up to now is      111.8 secs

     total energy              =     -82.97171787 Ry
     estimated scf accuracy    <       0.00328331 Ry

     total magnetization       =     2.00 Bohr mag/cell
     absolute magnetization    =     2.02 Bohr mag/cell

     iteration #  3     ecut=    60.00 Ry     beta= 0.70
     Davidson diagonalization with overlap

---- Real-time Memory Report at c_bands before calling an iterative solver
            53 MiB given to the printing process from OS
             0 MiB allocation reported by mallinfo(arena+hblkhd)
           427 MiB available memory on the node where the printing process lives
------------------
     ethr =  2.74E-05,  avg # of iterations = 18.0

     negative rho (up, down):  6.049E-04 2.514E-04

     total cpu time spent up to now is      176.9 secs

     total energy              =     -82.97864705 Ry
     estimated scf accuracy    <       0.00221668 Ry

     total magnetization       =     2.00 Bohr mag/cell
     absolute magnetization    =     2.03 Bohr mag/cell

     iteration #  4     ecut=    60.00 Ry     beta= 0.70
     Davidson diagonalization with overlap

---- Real-time Memory Report at c_bands before calling an iterative solver
            53 MiB given to the printing process from OS
             0 MiB allocation reported by mallinfo(arena+hblkhd)
           451 MiB available memory on the node where the printing process lives
------------------
     ethr =  1.85E-05,  avg # of iterations =  2.0

     negative rho (up, down):  6.469E-04 2.777E-04

     total cpu time spent up to now is      200.8 secs

     total energy              =     -82.97918922 Ry
     estimated scf accuracy    <       0.00009120 Ry

     total magnetization       =     2.00 Bohr mag/cell
     absolute magnetization    =     2.04 Bohr mag/cell

     iteration #  5     ecut=    60.00 Ry     beta= 0.70
     Davidson diagonalization with overlap

---- Real-time Memory Report at c_bands before calling an iterative solver
            54 MiB given to the printing process from OS
             0 MiB allocation reported by mallinfo(arena+hblkhd)
           464 MiB available memory on the node where the printing process lives
------------------
     c_bands:  1 eigenvalues not converged
     c_bands:  1 eigenvalues not converged
     ethr =  7.60E-07,  avg # of iterations = 20.0

     negative rho (up, down):  6.491E-04 2.760E-04

     total cpu time spent up to now is      262.0 secs

     total energy              =     -82.97943917 Ry
     estimated scf accuracy    <       0.00008633 Ry

     total magnetization       =     2.00 Bohr mag/cell
     absolute magnetization    =     2.04 Bohr mag/cell

     iteration #  6     ecut=    60.00 Ry     beta= 0.70
     Davidson diagonalization with overlap

---- Real-time Memory Report at c_bands before calling an iterative solver
            55 MiB given to the printing process from OS
             0 MiB allocation reported by mallinfo(arena+hblkhd)
           460 MiB available memory on the node where the printing process lives
------------------
     ethr =  7.19E-07,  avg # of iterations =  3.5

     negative rho (up, down):  6.480E-04 2.664E-04

     total cpu time spent up to now is      285.5 secs

     total energy              =     -82.97942316 Ry
     estimated scf accuracy    <       0.00003529 Ry

     total magnetization       =     2.00 Bohr mag/cell
     absolute magnetization    =     2.04 Bohr mag/cell

     iteration #  7     ecut=    60.00 Ry     beta= 0.70
     Davidson diagonalization with overlap

---- Real-time Memory Report at c_bands before calling an iterative solver
            55 MiB given to the printing process from OS
             0 MiB allocation reported by mallinfo(arena+hblkhd)
           428 MiB available memory on the node where the printing process lives
------------------
     ethr =  2.94E-07,  avg # of iterations =  4.0

     negative rho (up, down):  6.471E-04 2.693E-04

     total cpu time spent up to now is      314.0 secs

     total energy              =     -82.97943763 Ry
     estimated scf accuracy    <       0.00001260 Ry

     total magnetization       =     2.00 Bohr mag/cell
     absolute magnetization    =     2.04 Bohr mag/cell

     iteration #  8     ecut=    60.00 Ry     beta= 0.70
     Davidson diagonalization with overlap

---- Real-time Memory Report at c_bands before calling an iterative solver
            56 MiB given to the printing process from OS
             0 MiB allocation reported by mallinfo(arena+hblkhd)
           452 MiB available memory on the node where the printing process lives
------------------
     ethr =  1.05E-07,  avg # of iterations =  2.0

     negative rho (up, down):  6.486E-04 2.739E-04

     total cpu time spent up to now is      336.0 secs

     total energy              =     -82.97943984 Ry
     estimated scf accuracy    <       0.00000081 Ry

     total magnetization       =     2.00 Bohr mag/cell
     absolute magnetization    =     2.04 Bohr mag/cell

     iteration #  9     ecut=    60.00 Ry     beta= 0.70
     Davidson diagonalization with overlap

---- Real-time Memory Report at c_bands before calling an iterative solver
            57 MiB given to the printing process from OS
             0 MiB allocation reported by mallinfo(arena+hblkhd)
           465 MiB available memory on the node where the printing process lives
------------------
     ethr =  6.73E-09,  avg # of iterations =  7.0

     negative rho (up, down):  6.478E-04 2.706E-04

     total cpu time spent up to now is      379.1 secs

     total energy              =     -82.97943879 Ry
     estimated scf accuracy    <       0.00001488 Ry

     total magnetization       =     2.00 Bohr mag/cell
     absolute magnetization    =     2.04 Bohr mag/cell

     iteration # 10     ecut=    60.00 Ry     beta= 0.70
     Davidson diagonalization with overlap

---- Real-time Memory Report at c_bands before calling an iterative solver
            57 MiB given to the printing process from OS
             0 MiB allocation reported by mallinfo(arena+hblkhd)
           448 MiB available memory on the node where the printing process lives
------------------
     ethr =  6.73E-09,  avg # of iterations =  5.5

     negative rho (up, down):  6.478E-04 2.704E-04

     total cpu time spent up to now is      415.8 secs

     total energy              =     -82.97944106 Ry
     estimated scf accuracy    <       0.00000022 Ry

     total magnetization       =     2.00 Bohr mag/cell
     absolute magnetization    =     2.04 Bohr mag/cell

     iteration # 11     ecut=    60.00 Ry     beta= 0.70
     Davidson diagonalization with overlap

---- Real-time Memory Report at c_bands before calling an iterative solver
            57 MiB given to the printing process from OS
             0 MiB allocation reported by mallinfo(arena+hblkhd)
           448 MiB available memory on the node where the printing process lives
------------------
     ethr =  1.80E-09,  avg # of iterations =  4.0

     negative rho (up, down):  6.479E-04 2.704E-04

     total cpu time spent up to now is      439.8 secs

     total energy              =     -82.97944112 Ry
     estimated scf accuracy    <       0.00000008 Ry

     total magnetization       =     2.00 Bohr mag/cell
     absolute magnetization    =     2.04 Bohr mag/cell

     iteration # 12     ecut=    60.00 Ry     beta= 0.70
     Davidson diagonalization with overlap

---- Real-time Memory Report at c_bands before calling an iterative solver
            57 MiB given to the printing process from OS
             0 MiB allocation reported by mallinfo(arena+hblkhd)
           439 MiB available memory on the node where the printing process lives
------------------
     ethr =  6.94E-10,  avg # of iterations =  1.5

     negative rho (up, down):  6.488E-04 2.699E-04

     total cpu time spent up to now is      460.5 secs

     total energy              =     -82.97944109 Ry
     estimated scf accuracy    <       0.00000010 Ry

     total magnetization       =     2.00 Bohr mag/cell
     absolute magnetization    =     2.04 Bohr mag/cell

     iteration # 13     ecut=    60.00 Ry     beta= 0.70
     Davidson diagonalization with overlap

---- Real-time Memory Report at c_bands before calling an iterative solver
            57 MiB given to the printing process from OS
             0 MiB allocation reported by mallinfo(arena+hblkhd)
           460 MiB available memory on the node where the printing process lives
------------------
     ethr =  6.94E-10,  avg # of iterations =  5.0

     negative rho (up, down):  6.487E-04 2.702E-04

     total cpu time spent up to now is      494.8 secs

     total energy              =     -82.97944111 Ry
     estimated scf accuracy    <       0.00000054 Ry

     total magnetization       =     2.00 Bohr mag/cell
     absolute magnetization    =     2.04 Bohr mag/cell

     iteration # 14     ecut=    60.00 Ry     beta= 0.70
     Davidson diagonalization with overlap

---- Real-time Memory Report at c_bands before calling an iterative solver
            57 MiB given to the printing process from OS
             0 MiB allocation reported by mallinfo(arena+hblkhd)
           516 MiB available memory on the node where the printing process lives
------------------
     ethr =  6.94E-10,  avg # of iterations =  3.0

     negative rho (up, down):  6.487E-04 2.703E-04

     total cpu time spent up to now is      520.1 secs

     total energy              =     -82.97944111 Ry
     estimated scf accuracy    <       0.00000016 Ry

     total magnetization       =     2.00 Bohr mag/cell
     absolute magnetization    =     2.04 Bohr mag/cell

     iteration # 15     ecut=    60.00 Ry     beta= 0.70
     Davidson diagonalization with overlap

---- Real-time Memory Report at c_bands before calling an iterative solver
            57 MiB given to the printing process from OS
             0 MiB allocation reported by mallinfo(arena+hblkhd)
           539 MiB available memory on the node where the printing process lives
------------------
     ethr =  6.94E-10,  avg # of iterations =  2.0

     negative rho (up, down):  6.487E-04 2.704E-04

     total cpu time spent up to now is      542.0 secs

     total energy              =     -82.97944109 Ry
     estimated scf accuracy    <       0.00000010 Ry

     total magnetization       =     2.00 Bohr mag/cell
     absolute magnetization    =     2.04 Bohr mag/cell

     iteration # 16     ecut=    60.00 Ry     beta= 0.70
     Davidson diagonalization with overlap

---- Real-time Memory Report at c_bands before calling an iterative solver
            57 MiB given to the printing process from OS
             0 MiB allocation reported by mallinfo(arena+hblkhd)
           517 MiB available memory on the node where the printing process lives
------------------
     ethr =  6.94E-10,  avg # of iterations =  3.0

     negative rho (up, down):  6.485E-04 2.705E-04

     total cpu time spent up to now is      566.2 secs

     total energy              =     -82.97944109 Ry
     estimated scf accuracy    <       0.00000003 Ry

     total magnetization       =     2.00 Bohr mag/cell
     absolute magnetization    =     2.04 Bohr mag/cell

     iteration # 17     ecut=    60.00 Ry     beta= 0.70
     Davidson diagonalization with overlap

---- Real-time Memory Report at c_bands before calling an iterative solver
            57 MiB given to the printing process from OS
             0 MiB allocation reported by mallinfo(arena+hblkhd)
           532 MiB available memory on the node where the printing process lives
------------------
     ethr =  2.09E-10,  avg # of iterations =  4.0

     negative rho (up, down):  6.485E-04 2.704E-04

     total cpu time spent up to now is      593.7 secs

     total energy              =     -82.97944111 Ry
     estimated scf accuracy    <       0.00000001 Ry

     total magnetization       =     2.00 Bohr mag/cell
     absolute magnetization    =     2.04 Bohr mag/cell

     iteration # 18     ecut=    60.00 Ry     beta= 0.70
     Davidson diagonalization with overlap

---- Real-time Memory Report at c_bands before calling an iterative solver
            57 MiB given to the printing process from OS
             0 MiB allocation reported by mallinfo(arena+hblkhd)
           513 MiB available memory on the node where the printing process lives
------------------
     ethr =  1.18E-10,  avg # of iterations =  1.5

     negative rho (up, down):  6.484E-04 2.704E-04

     Magnetic moment per site  (integrated on atomic sphere of radius R)
     atom   1 (R=0.086)  charge=  2.5356  magn=  0.4872
     atom   2 (R=0.086)  charge=  2.5356  magn=  0.4872

     total cpu time spent up to now is      614.2 secs

     End of self-consistent calculation

 ------ SPIN UP ------------


          k = 0.0000 0.0000 0.0000 (  7809 PWs)   bands (ev):

   -34.2846 -18.2964 -13.3680 -13.3680 -12.5391  -4.4700  -4.4700   0.0427
     4.4196   4.4673

     occupation numbers 
     1.0000   1.0000   1.0000   1.0000   1.0000   1.0000   1.0000   0.0000
     0.0000   0.0000

 ------ SPIN DOWN ----------


          k = 0.0000 0.0000 0.0000 (  7809 PWs)   bands (ev):

   -33.1842 -16.5060 -11.5544 -11.5060 -11.5060  -2.1190  -2.1190   0.2546
     4.5487   4.5839

     occupation numbers 
     1.0000   1.0000   1.0000   1.0000   1.0000   0.0000   0.0000   0.0000
     0.0000   0.0000

     the Fermi energy is    -3.1533 ev

!    total energy              =     -82.97944111 Ry
     total all-electron energy =      -300.673222 Ry
     estimated scf accuracy    <          2.3E-09 Ry
     smearing contrib. (-TS)   =      -0.00000000 Ry
     internal energy E=F+TS    =     -82.97944111 Ry

     The total energy is F=E-TS. E is the sum of the following terms:
     one-electron contribution =     -92.35026935 Ry
     hartree contribution      =      48.85795098 Ry
     xc contribution           =     -14.76787409 Ry
     ewald contribution        =      -5.52594106 Ry
     one-center paw contrib.   =     -19.19330758 Ry
      -> PAW hartree energy AE =      28.14181617 Ry
      -> PAW hartree energy PS =     -28.10705154 Ry
      -> PAW xc energy AE      =     -17.04339938 Ry
      -> PAW xc energy PS      =       7.41198096 Ry
      -> total E_H with PAW    =      48.89271561 Ry
      -> total E_XC with PAW   =     -24.39929251 Ry

     total magnetization       =     2.00 Bohr mag/cell
     absolute magnetization    =     2.04 Bohr mag/cell

     convergence has been achieved in  18 iterations

     Writing all to output data dir ./tmp_1.1/o2.save/ :
     XML data file, charge density, pseudopotentials, collected wavefunctions

     init_run     :     68.38s CPU     33.65s WALL (       1 calls)
     electrons    :   1144.91s CPU    579.78s WALL (       1 calls)

     Called by init_run:
     wfcinit      :     13.14s CPU      6.62s WALL (       1 calls)
     wfcinit:atom :      0.13s CPU      0.07s WALL (       2 calls)
     wfcinit:wfcr :     12.86s CPU      6.47s WALL (       2 calls)
     potinit      :      6.90s CPU      3.45s WALL (       1 calls)
     hinit0       :     46.90s CPU     22.80s WALL (       1 calls)

     Called by electrons:
     c_bands      :    886.65s CPU    449.14s WALL (      19 calls)
     sum_band     :    123.50s CPU     62.35s WALL (      19 calls)
     v_of_rho     :     62.50s CPU     31.59s WALL (      19 calls)
     v_h          :      6.43s CPU      3.26s WALL (      19 calls)
     v_xc         :     56.05s CPU     28.33s WALL (      19 calls)
     newd         :     15.60s CPU      7.82s WALL (      19 calls)
     PAW_pot      :     54.02s CPU     27.50s WALL (      19 calls)
     mix_rho      :      8.74s CPU      4.42s WALL (      19 calls)

     Called by c_bands:
     init_us_2    :      4.31s CPU      2.20s WALL (      78 calls)
     cegterg      :    880.39s CPU    445.91s WALL (      38 calls)

     Called by sum_band:
     sum_band:wei :      0.00s CPU      0.00s WALL (      19 calls)
     sum_band:loo :    104.20s CPU     52.62s WALL (      19 calls)
     sum_band:buf :      0.00s CPU      0.00s WALL (      38 calls)
     sum_band:ini :      2.12s CPU      1.09s WALL (      38 calls)
     sum_band:cal :      2.02s CPU      1.10s WALL (      38 calls)
     sum_band:bec :      0.00s CPU      0.00s WALL (      38 calls)
     addusdens    :      2.03s CPU      1.00s WALL (      19 calls)
                                        0.00s GPU  (      19 calls)
     addusd:skk   :      0.00s CPU      0.00s WALL (      19 calls)
                                        0.00s GPU  (      19 calls)

     Called by *egterg:
     cdiaghg      :      0.12s CPU      0.11s WALL (     230 calls)
     cegterg:over :      9.68s CPU      4.97s WALL (     194 calls)
     cegterg:upda :     10.73s CPU      5.50s WALL (     194 calls)
     cegterg:last :      0.23s CPU      0.20s WALL (     118 calls)
     h_psi        :    820.37s CPU    415.40s WALL (     234 calls)
     s_psi        :      0.09s CPU      0.06s WALL (     234 calls)
     g_psi        :     17.00s CPU      8.59s WALL (     194 calls)

     Called by h_psi:
     h_psi:calbec :     10.47s CPU      5.65s WALL (     234 calls)
     vloc_psi     :    789.54s CPU    399.33s WALL (     234 calls)
     add_vuspsi   :      0.15s CPU      0.15s WALL (     234 calls)

     General routines
     calbec       :     12.47s CPU      6.74s WALL (     272 calls)
     fft          :    115.09s CPU     56.31s WALL (     399 calls)
     ffts         :      6.31s CPU      3.17s WALL (      38 calls)
     fftw         :    532.50s CPU    268.51s WALL (    2986 calls)

     Parallel routines

     PAW routines
     PAW_pot      :     54.02s CPU     27.50s WALL (      19 calls)
     PAW_symme    :      0.93s CPU      0.51s WALL (      38 calls)

     PWSCF        :  20m15.19s CPU  10m14.42s WALL


   This run was terminated on:   8: 8:12   2Jul2025            

=------------------------------------------------------------------------------=
   JOB DONE.
=------------------------------------------------------------------------------=
