
     Program PWSCF v.7.4.1 starts on  5Jul2025 at  9: 2:46 

     This program is part of the open-source Quantum ESPRESSO suite
     for quantum simulation of materials; please cite
         "P. Giannozzi et al., J. Phys.:Condens. Matter 21 395502 (2009);
         "P. Giannozzi et al., J. Phys.:Condens. Matter 29 465901 (2017);
         "P. Giannozzi et al., J. Chem. Phys. 152 154105 (2020);
          URL http://www.quantum-espresso.org", 
     in publications or presentations arising from this work. More details at
     http://www.quantum-espresso.org/quote

     Parallel version (MPI), running on     6 processors

     MPI processes distributed on     1 nodes
     6281 MiB available memory on the printing compute node when the environment starts

     Reading input from nh3_opt.in

     Current dimensions of program PWSCF are:
     Max number of different atomic species (ntypx) = 10
     Max number of k-points (npk) =  40000
     Max angular momentum in pseudopotentials (lmaxx) =  4
     file N.pbe-n-kjpaw_psl.1.0.0.UPF: wavefunction(s)  2S renormalized
     file H.pbe-kjpaw_psl.1.0.0.UPF: wavefunction(s)  1S renormalized

     R & G space division:  proc/nbgrp/npool/nimage =       6
     Subspace diagonalization in iterative solution of the eigenvalue problem:
     a serial algorithm will be used


     Parallelization info
     --------------------
     sticks:   dense  smooth     PW     G-vecs:    dense   smooth      PW
     Min        2123    1061    266               180125    63720    7972
     Max        2125    1062    267               180126    63721    7973
     Sum       12745    6369   1597              1080751   382323   47833

     Using Slab Decomposition



     bravais-lattice index     =            1
     lattice parameter (alat)  =      20.0000  a.u.
     unit-cell volume          =    8000.0000 (a.u.)^3
     number of atoms/cell      =            4
     number of atomic types    =            2
     number of electrons       =         8.00
     number of Kohn-Sham states=            4
     kinetic-energy cutoff     =      50.0000  Ry
     charge density cutoff     =     400.0000  Ry
     scf convergence threshold =      1.0E-08
     mixing beta               =       0.7000
     number of iterations used =            8  plain     mixing
     energy convergence thresh.=      1.0E-04
     force convergence thresh. =      1.0E-03
     Exchange-correlation= SLA  PW   PBX  PBC
                           (   1   4   3   4   0   0   0)
     nstep                     =           50


     celldm(1)=  20.000000  celldm(2)=   0.000000  celldm(3)=   0.000000
     celldm(4)=   0.000000  celldm(5)=   0.000000  celldm(6)=   0.000000

     crystal axes: (cart. coord. in units of alat)
               a(1) = (   1.000000   0.000000   0.000000 )  
               a(2) = (   0.000000   1.000000   0.000000 )  
               a(3) = (   0.000000   0.000000   1.000000 )  

     reciprocal axes: (cart. coord. in units 2 pi/alat)
               b(1) = (  1.000000  0.000000  0.000000 )  
               b(2) = (  0.000000  1.000000  0.000000 )  
               b(3) = (  0.000000  0.000000  1.000000 )  


     PseudoPot. # 1 for N  read from file:
     ./N.pbe-n-kjpaw_psl.1.0.0.UPF
     MD5 check sum: 14c48229446f9f2d411169a3abcbc3fa
     Pseudo is Projector augmented-wave + core cor, Zval =  5.0
     Generated using &quot;atomic&quot; code by A. Dal Corso  v.6.3
     Shape of augmentation charge: PSQ
     Using radial grid of 1085 points,  4 beta functions with: 
                l(1) =   0
                l(2) =   0
                l(3) =   1
                l(4) =   1
     Q(r) pseudized with 0 coefficients 


     PseudoPot. # 2 for H  read from file:
     ./H.pbe-kjpaw_psl.1.0.0.UPF
     MD5 check sum: d81a744832360e4a8af0b0b5b123bc2a
     Pseudo is Projector augmented-wave, Zval =  1.0
     Generated using &quot;atomic&quot; code by A. Dal Corso  v.6.3MaX
     Shape of augmentation charge: PSQ
     Using radial grid of  929 points,  2 beta functions with: 
                l(1) =   0
                l(2) =   0
     Q(r) pseudized with 0 coefficients 


     atomic species   valence    mass     pseudopotential
     N                 5.00    14.00700     N ( 1.00)
     H                 1.00     1.00800     H ( 1.00)

      2 Sym. Ops. (no inversion) found


                                    s                        frac. trans.

      isym =  1     identity                                     

 cryst.   s( 1) = (     1          0          0      )
                  (     0          1          0      )
                  (     0          0          1      )

 cart.    s( 1) = (  1.0000000  0.0000000  0.0000000 )
                  (  0.0000000  1.0000000  0.0000000 )
                  (  0.0000000  0.0000000  1.0000000 )


      isym =  2     inv. 180 deg rotation - cart. axis [1,0,0]   

 cryst.   s( 2) = (    -1          0          0      )
                  (     0          1          0      )
                  (     0          0          1      )

 cart.    s( 2) = ( -1.0000000  0.0000000  0.0000000 )
                  (  0.0000000  1.0000000  0.0000000 )
                  (  0.0000000  0.0000000  1.0000000 )


     point group C_s (m)    
     there are  2 classes
     the character table:

       E     s    
A'     1.00  1.00
A''    1.00 -1.00

     the symmetry operations in each class and the name of the first element:

     E        1
          identity                                               
     s        2
          inv. 180 deg rotation - cart. axis [1,0,0]             

   Cartesian axes

     site n.     atom                  positions (alat units)
         1        N      tau(   1) = (   0.0000000   0.0000000   0.0000000  )
         2        H      tau(   2) = (   0.0000000   0.0885337   0.0359993  )
         3        H      tau(   3) = (   0.0767229  -0.0443141   0.0359993  )
         4        H      tau(   4) = (  -0.0767229  -0.0443141   0.0359993  )

   Crystallographic axes

     site n.     atom                  positions (cryst. coord.)
         1        N      tau(   1) = (  0.0000000  0.0000000  0.0000000  )
         2        H      tau(   2) = (  0.0000000  0.0885337  0.0359993  )
         3        H      tau(   3) = (  0.0767229 -0.0443141  0.0359993  )
         4        H      tau(   4) = ( -0.0767229 -0.0443141  0.0359993  )

     number of k points=     1
                       cart. coord. in units 2pi/alat
        k(    1) = (   0.0000000   0.0000000   0.0000000), wk =   2.0000000

                       cryst. coord.
        k(    1) = (   0.0000000   0.0000000   0.0000000), wk =   2.0000000

     Dense  grid:  1080751 G-vectors     FFT dimensions: ( 128, 128, 128)

     Smooth grid:   382323 G-vectors     FFT dimensions: (  96,  96,  96)

     Dynamical RAM for                 wfc:       0.49 MB

     Dynamical RAM for     wfc (w. buffer):       0.49 MB

     Dynamical RAM for           str. fact:       5.50 MB

     Dynamical RAM for           local pot:       0.00 MB

     Dynamical RAM for          nlocal pot:       1.70 MB

     Dynamical RAM for                qrad:       0.92 MB

     Dynamical RAM for          rho,v,vnew:      16.50 MB

     Dynamical RAM for               rhoin:       5.50 MB

     Dynamical RAM for            rho*nmix:      43.98 MB

     Dynamical RAM for           G-vectors:      10.79 MB

     Dynamical RAM for          h,s,v(r/c):       0.00 MB

     Dynamical RAM for          <psi|beta>:       0.00 MB

     Dynamical RAM for                 psi:       0.97 MB

     Dynamical RAM for                hpsi:       0.97 MB

     Dynamical RAM for                spsi:       0.97 MB

     Dynamical RAM for      wfcinit/wfcrot:       0.97 MB

     Dynamical RAM for           addusdens:     126.43 MB

     Dynamical RAM for          addusforce:     138.80 MB

     Estimated static dynamical RAM per process >      63.38 MB

     Estimated max dynamical RAM per process >     246.16 MB

     Estimated total dynamical RAM >       1.44 GB

     Initial potential from superposition of free atoms

     starting charge       8.0000, renormalised to       8.0000

     negative rho (up, down):  2.995E-04 0.000E+00
     Starting wfcs are    7 randomized atomic wfcs
     Checking if some PAW data can be deallocated... 
       PAW data deallocated on    4 nodes for type:  1
       PAW data deallocated on    2 nodes for type:  2

     total cpu time spent up to now is        1.7 secs

     Self-consistent Calculation

     iteration #  1     ecut=    50.00 Ry     beta= 0.70
     Davidson diagonalization with overlap

---- Real-time Memory Report at c_bands before calling an iterative solver
           209 MiB given to the printing process from OS
             0 MiB allocation reported by mallinfo(arena+hblkhd)
          5296 MiB available memory on the node where the printing process lives
------------------
     ethr =  1.00E-02,  avg # of iterations =  2.0

     negative rho (up, down):  5.282E-04 0.000E+00

     total cpu time spent up to now is        2.7 secs

     total energy              =     -31.51726958 Ry
     estimated scf accuracy    <       0.69505935 Ry

     iteration #  2     ecut=    50.00 Ry     beta= 0.70
     Davidson diagonalization with overlap

---- Real-time Memory Report at c_bands before calling an iterative solver
           226 MiB given to the printing process from OS
             0 MiB allocation reported by mallinfo(arena+hblkhd)
          4841 MiB available memory on the node where the printing process lives
------------------
     ethr =  8.69E-03,  avg # of iterations =  2.0

     negative rho (up, down):  7.045E-04 0.000E+00

     total cpu time spent up to now is        3.7 secs

     total energy              =     -31.70893021 Ry
     estimated scf accuracy    <       0.50119051 Ry

     iteration #  3     ecut=    50.00 Ry     beta= 0.70
     Davidson diagonalization with overlap

---- Real-time Memory Report at c_bands before calling an iterative solver
           233 MiB given to the printing process from OS
             0 MiB allocation reported by mallinfo(arena+hblkhd)
          4731 MiB available memory on the node where the printing process lives
------------------
     ethr =  6.26E-03,  avg # of iterations =  2.0

     negative rho (up, down):  5.835E-04 0.000E+00

     total cpu time spent up to now is        4.8 secs

     total energy              =     -31.79309770 Ry
     estimated scf accuracy    <       0.00618482 Ry

     iteration #  4     ecut=    50.00 Ry     beta= 0.70
     Davidson diagonalization with overlap

---- Real-time Memory Report at c_bands before calling an iterative solver
           235 MiB given to the printing process from OS
             0 MiB allocation reported by mallinfo(arena+hblkhd)
          4714 MiB available memory on the node where the printing process lives
------------------
     ethr =  7.73E-05,  avg # of iterations =  2.0

     negative rho (up, down):  5.417E-04 0.000E+00

     total cpu time spent up to now is        5.8 secs

     total energy              =     -31.79505357 Ry
     estimated scf accuracy    <       0.00368666 Ry

     iteration #  5     ecut=    50.00 Ry     beta= 0.70
     Davidson diagonalization with overlap

---- Real-time Memory Report at c_bands before calling an iterative solver
           237 MiB given to the printing process from OS
             0 MiB allocation reported by mallinfo(arena+hblkhd)
          4655 MiB available memory on the node where the printing process lives
------------------
     ethr =  4.61E-05,  avg # of iterations =  1.0

     negative rho (up, down):  5.657E-04 0.000E+00

     total cpu time spent up to now is        6.8 secs

     total energy              =     -31.79490741 Ry
     estimated scf accuracy    <       0.00056421 Ry

     iteration #  6     ecut=    50.00 Ry     beta= 0.70
     Davidson diagonalization with overlap

---- Real-time Memory Report at c_bands before calling an iterative solver
           239 MiB given to the printing process from OS
             0 MiB allocation reported by mallinfo(arena+hblkhd)
          4755 MiB available memory on the node where the printing process lives
------------------
     ethr =  7.05E-06,  avg # of iterations =  2.0

     negative rho (up, down):  5.671E-04 0.000E+00

     total cpu time spent up to now is        7.9 secs

     total energy              =     -31.79511186 Ry
     estimated scf accuracy    <       0.00006957 Ry

     iteration #  7     ecut=    50.00 Ry     beta= 0.70
     Davidson diagonalization with overlap

---- Real-time Memory Report at c_bands before calling an iterative solver
           241 MiB given to the printing process from OS
             0 MiB allocation reported by mallinfo(arena+hblkhd)
          4573 MiB available memory on the node where the printing process lives
------------------
     ethr =  8.70E-07,  avg # of iterations =  2.0

     negative rho (up, down):  5.665E-04 0.000E+00

     total cpu time spent up to now is        8.9 secs

     total energy              =     -31.79511541 Ry
     estimated scf accuracy    <       0.00000799 Ry

     iteration #  8     ecut=    50.00 Ry     beta= 0.70
     Davidson diagonalization with overlap

---- Real-time Memory Report at c_bands before calling an iterative solver
           243 MiB given to the printing process from OS
             0 MiB allocation reported by mallinfo(arena+hblkhd)
          4570 MiB available memory on the node where the printing process lives
------------------
     ethr =  9.99E-08,  avg # of iterations =  2.0

     negative rho (up, down):  5.681E-04 0.000E+00

     total cpu time spent up to now is        9.9 secs

     total energy              =     -31.79511755 Ry
     estimated scf accuracy    <       0.00000006 Ry

     iteration #  9     ecut=    50.00 Ry     beta= 0.70
     Davidson diagonalization with overlap

---- Real-time Memory Report at c_bands before calling an iterative solver
           245 MiB given to the printing process from OS
             0 MiB allocation reported by mallinfo(arena+hblkhd)
          4543 MiB available memory on the node where the printing process lives
------------------
     ethr =  7.69E-10,  avg # of iterations =  2.0

     negative rho (up, down):  5.680E-04 0.000E+00

     total cpu time spent up to now is       11.0 secs

     total energy              =     -31.79511753 Ry
     estimated scf accuracy    <       0.00000016 Ry

     iteration # 10     ecut=    50.00 Ry     beta= 0.70
     Davidson diagonalization with overlap

---- Real-time Memory Report at c_bands before calling an iterative solver
           247 MiB given to the printing process from OS
             0 MiB allocation reported by mallinfo(arena+hblkhd)
          4648 MiB available memory on the node where the printing process lives
------------------
     ethr =  7.69E-10,  avg # of iterations =  1.0

     negative rho (up, down):  5.680E-04 0.000E+00

     total cpu time spent up to now is       12.0 secs

     total energy              =     -31.79511750 Ry
     estimated scf accuracy    <       0.00000006 Ry

     iteration # 11     ecut=    50.00 Ry     beta= 0.70
     Davidson diagonalization with overlap

---- Real-time Memory Report at c_bands before calling an iterative solver
           249 MiB given to the printing process from OS
             0 MiB allocation reported by mallinfo(arena+hblkhd)
          4652 MiB available memory on the node where the printing process lives
------------------
     ethr =  7.26E-10,  avg # of iterations =  2.0

     negative rho (up, down):  5.681E-04 0.000E+00

     total cpu time spent up to now is       12.9 secs

     End of self-consistent calculation

          k = 0.0000 0.0000 0.0000 ( 47833 PWs)   bands (ev):

   -21.1229 -11.1980 -11.1944  -6.0494

     occupation numbers 
     1.0000   1.0000   1.0000   1.0000

     highest occupied level (ev):    -6.0494

!    total energy              =     -31.79511751 Ry
     total all-electron energy =      -113.093903 Ry
     estimated scf accuracy    <          9.5E-11 Ry

     The total energy is the sum of the following terms:
     one-electron contribution =     -51.47057747 Ry
     hartree contribution      =      26.95130819 Ry
     xc contribution           =      -7.90910309 Ry
     ewald contribution        =       8.60772699 Ry
     one-center paw contrib.   =      -7.97447212 Ry
      -> PAW hartree energy AE =      17.57638071 Ry
      -> PAW hartree energy PS =     -17.55491661 Ry
      -> PAW xc energy AE      =     -13.71107234 Ry
      -> PAW xc energy PS      =       5.71553249 Ry
      -> total E_H with PAW    =      26.97277228 Ry
      -> total E_XC with PAW   =     -15.90464294 Ry

     convergence has been achieved in  11 iterations

     negative rho (up, down):  5.681E-04 0.000E+00

     Forces acting on atoms (cartesian axes, Ry/au):

     atom    1 type  1   force =     0.00000000   -0.00107231   -0.01660392
     atom    2 type  2   force =     0.00000000    0.01693959    0.00582441
     atom    3 type  2   force =     0.01375997   -0.00793364    0.00538976
     atom    4 type  2   force =    -0.01375997   -0.00793364    0.00538976
     The non-local contrib.  to forces
     atom    1 type  1   force =     0.00000000   -0.00073128    1.47977121
     atom    2 type  2   force =     0.00000000   -0.09140671   -0.03385641
     atom    3 type  2   force =    -0.07898698    0.04562327   -0.03375519
     atom    4 type  2   force =     0.07898698    0.04562327   -0.03375519
     The ionic contribution  to forces
     atom    1 type  1   force =     0.00000000   -0.00186292   -3.07781253
     atom    2 type  2   force =     0.00000000    2.88819940    1.02728221
     atom    3 type  2   force =     2.49846313   -1.44316824    1.02526516
     atom    4 type  2   force =    -2.49846313   -1.44316824    1.02526516
     The local contribution  to forces
     atom    1 type  1   force =     0.00000000    0.00149412    1.60278649
     atom    2 type  2   force =     0.00000000   -2.77985031   -0.98760185
     atom    3 type  2   force =    -2.40571394    1.38961023   -0.98612066
     atom    4 type  2   force =     2.40571394    1.38961023   -0.98612066
     The core correction contribution to forces
     atom    1 type  1   force =     0.00000000    0.00002814   -0.02136760
     atom    2 type  2   force =     0.00000000    0.00000000    0.00000000
     atom    3 type  2   force =     0.00000000    0.00000000    0.00000000
     atom    4 type  2   force =     0.00000000    0.00000000    0.00000000
     The Hubbard contrib.    to forces
     atom    1 type  1   force =     0.00000000    0.00000000    0.00000000
     atom    2 type  2   force =     0.00000000    0.00000000    0.00000000
     atom    3 type  2   force =     0.00000000    0.00000000    0.00000000
     atom    4 type  2   force =     0.00000000    0.00000000    0.00000000
     The SCF correction term to forces
     atom    1 type  1   force =     0.00000000   -0.00000018    0.00001896
     atom    2 type  2   force =     0.00000000   -0.00000260    0.00000092
     atom    3 type  2   force =    -0.00000225    0.00000129    0.00000091
     atom    4 type  2   force =     0.00000225    0.00000129    0.00000091

     Total force =     0.034064     Total SCF correction =     0.000020

     BFGS Geometry Optimization
     Energy error            =      1.2E-03 Ry
     Gradient error          =      1.7E-02 Ry/Bohr

     number of scf cycles    =   1
     number of bfgs steps    =   0

     energy             new  =     -31.7951175112 Ry

     new trust radius        =       0.0179129435 bohr
     new conv_thr            =       0.0000000100 Ry


ATOMIC_POSITIONS (angstrom)
N                0.0000000000       -0.0005674401       -0.0087864179
H                0.0000000000        0.9459640467        0.3840821438
H                0.8192814601       -0.4731983033        0.3838521370
H               -0.8192814601       -0.4731983033        0.3838521370



     Writing config-only to output data dir ./tmp/nh3.save/ :
     XML data file
     NEW-OLD atomic charge density approx. for the potential

     negative rho (up, down):  5.537E-04 0.000E+00

     total cpu time spent up to now is       14.4 secs

     Self-consistent Calculation

     iteration #  1     ecut=    50.00 Ry     beta= 0.70
     Davidson diagonalization with overlap

---- Real-time Memory Report at c_bands before calling an iterative solver
           251 MiB given to the printing process from OS
             0 MiB allocation reported by mallinfo(arena+hblkhd)
          4734 MiB available memory on the node where the printing process lives
------------------
     ethr =  1.00E-06,  avg # of iterations =  4.0

     negative rho (up, down):  5.535E-04 0.000E+00

     total cpu time spent up to now is       15.5 secs

     total energy              =     -31.79530334 Ry
     estimated scf accuracy    <       0.00073503 Ry

     iteration #  2     ecut=    50.00 Ry     beta= 0.70
     Davidson diagonalization with overlap

---- Real-time Memory Report at c_bands before calling an iterative solver
           261 MiB given to the printing process from OS
             0 MiB allocation reported by mallinfo(arena+hblkhd)
          4541 MiB available memory on the node where the printing process lives
------------------
     ethr =  9.19E-06,  avg # of iterations =  2.0

     negative rho (up, down):  5.599E-04 0.000E+00

     total cpu time spent up to now is       16.5 secs

     total energy              =     -31.79550588 Ry
     estimated scf accuracy    <       0.00050197 Ry

     iteration #  3     ecut=    50.00 Ry     beta= 0.70
     Davidson diagonalization with overlap

---- Real-time Memory Report at c_bands before calling an iterative solver
           263 MiB given to the printing process from OS
             0 MiB allocation reported by mallinfo(arena+hblkhd)
          4578 MiB available memory on the node where the printing process lives
------------------
     ethr =  6.27E-06,  avg # of iterations =  2.0

     negative rho (up, down):  5.619E-04 0.000E+00

     total cpu time spent up to now is       17.5 secs

     total energy              =     -31.79559512 Ry
     estimated scf accuracy    <       0.00000147 Ry

     iteration #  4     ecut=    50.00 Ry     beta= 0.70
     Davidson diagonalization with overlap

---- Real-time Memory Report at c_bands before calling an iterative solver
           265 MiB given to the printing process from OS
             0 MiB allocation reported by mallinfo(arena+hblkhd)
          4536 MiB available memory on the node where the printing process lives
------------------
     ethr =  1.84E-08,  avg # of iterations =  3.0

     negative rho (up, down):  5.614E-04 0.000E+00

     total cpu time spent up to now is       18.6 secs

     total energy              =     -31.79559627 Ry
     estimated scf accuracy    <       0.00000073 Ry

     iteration #  5     ecut=    50.00 Ry     beta= 0.70
     Davidson diagonalization with overlap

---- Real-time Memory Report at c_bands before calling an iterative solver
           267 MiB given to the printing process from OS
             0 MiB allocation reported by mallinfo(arena+hblkhd)
          4609 MiB available memory on the node where the printing process lives
------------------
     ethr =  9.09E-09,  avg # of iterations =  2.0

     negative rho (up, down):  5.612E-04 0.000E+00

     total cpu time spent up to now is       19.5 secs

     End of self-consistent calculation

          k = 0.0000 0.0000 0.0000 ( 47833 PWs)   bands (ev):

   -21.0126 -11.0982 -11.0921  -6.0742

     occupation numbers 
     1.0000   1.0000   1.0000   1.0000

     highest occupied level (ev):    -6.0742

!    total energy              =     -31.79559637 Ry
     total all-electron energy =      -113.094382 Ry
     estimated scf accuracy    <          7.0E-09 Ry

     The total energy is the sum of the following terms:
     one-electron contribution =     -51.12267979 Ry
     hartree contribution      =      26.77896677 Ry
     xc contribution           =      -7.87833892 Ry
     ewald contribution        =       8.40106671 Ry
     one-center paw contrib.   =      -7.97461114 Ry
      -> PAW hartree energy AE =      17.30859689 Ry
      -> PAW hartree energy PS =     -17.28726288 Ry
      -> PAW xc energy AE      =     -13.66028407 Ry
      -> PAW xc energy PS      =       5.66473902 Ry
      -> total E_H with PAW    =      26.80030078 Ry
      -> total E_XC with PAW   =     -15.87388398 Ry

     convergence has been achieved in   5 iterations

     negative rho (up, down):  5.612E-04 0.000E+00

     Forces acting on atoms (cartesian axes, Ry/au):

     atom    1 type  1   force =     0.00000000    0.00116017    0.00378141
     atom    2 type  2   force =     0.00000000   -0.00277990   -0.00158569
     atom    3 type  2   force =    -0.00153977    0.00080987   -0.00109786
     atom    4 type  2   force =     0.00153977    0.00080987   -0.00109786
     The non-local contrib.  to forces
     atom    1 type  1   force =     0.00000000    0.00059221    1.51320542
     atom    2 type  2   force =     0.00000000   -0.08734620   -0.03295628
     atom    3 type  2   force =    -0.07584103    0.04374284   -0.03304033
     atom    4 type  2   force =     0.07584103    0.04374284   -0.03304033
     The ionic contribution  to forces
     atom    1 type  1   force =     0.00000000    0.00240443   -3.05824240
     atom    2 type  2   force =     0.00000000    2.80852673    1.01840834
     atom    3 type  2   force =     2.43582720   -1.40546558    1.01991703
     atom    4 type  2   force =    -2.43582720   -1.40546558    1.01991703
     The local contribution  to forces
     atom    1 type  1   force =     0.00000000   -0.00181385    1.57109537
     atom    2 type  2   force =    -0.00000000   -2.72395279   -0.98702451
     atom    3 type  2   force =    -2.36151930    1.36252949   -0.98796114
     atom    4 type  2   force =     2.36151930    1.36252949   -0.98796114
     The core correction contribution to forces
     atom    1 type  1   force =    -0.00000000   -0.00001951   -0.02227512
     atom    2 type  2   force =     0.00000000    0.00000000    0.00000000
     atom    3 type  2   force =     0.00000000    0.00000000    0.00000000
     atom    4 type  2   force =     0.00000000    0.00000000    0.00000000
     The Hubbard contrib.    to forces
     atom    1 type  1   force =     0.00000000    0.00000000    0.00000000
     atom    2 type  2   force =     0.00000000    0.00000000    0.00000000
     atom    3 type  2   force =     0.00000000    0.00000000    0.00000000
     atom    4 type  2   force =     0.00000000    0.00000000    0.00000000
     The SCF correction term to forces
     atom    1 type  1   force =    -0.00000000   -0.00000278    0.00000988
     atom    2 type  2   force =    -0.00000000   -0.00000730   -0.00000151
     atom    3 type  2   force =    -0.00000664    0.00000346   -0.00000170
     atom    4 type  2   force =     0.00000664    0.00000346   -0.00000170

     Total force =     0.005861     Total SCF correction =     0.000017
     Energy error            =      4.8E-04 Ry
     Gradient error          =      3.8E-03 Ry/Bohr

     number of scf cycles    =   2
     number of bfgs steps    =   1

     energy             old  =     -31.7951175112 Ry
     energy             new  =     -31.7955963743 Ry

     CASE: energy            _new < energy            _old

     new trust radius        =       0.0033631836 bohr
     new conv_thr            =       0.0000000004 Ry


ATOMIC_POSITIONS (angstrom)
N                0.0000000000       -0.0000403563       -0.0070865395
H                0.0000000000        0.9447209134        0.3833677511
H                0.8185989373       -0.4728402785        0.3833593942
H               -0.8185989373       -0.4728402785        0.3833593942



     Writing config-only to output data dir ./tmp/nh3.save/ :
     XML data file
     NEW-OLD atomic charge density approx. for the potential

     negative rho (up, down):  5.628E-04 0.000E+00

     total cpu time spent up to now is       21.0 secs

     Self-consistent Calculation

     iteration #  1     ecut=    50.00 Ry     beta= 0.70
     Davidson diagonalization with overlap

---- Real-time Memory Report at c_bands before calling an iterative solver
           267 MiB given to the printing process from OS
             0 MiB allocation reported by mallinfo(arena+hblkhd)
          4731 MiB available memory on the node where the printing process lives
------------------
     ethr =  1.00E-06,  avg # of iterations =  2.0

     negative rho (up, down):  5.628E-04 0.000E+00

     total cpu time spent up to now is       22.1 secs

     total energy              =     -31.79560651 Ry
     estimated scf accuracy    <       0.00001351 Ry

     iteration #  2     ecut=    50.00 Ry     beta= 0.70
     Davidson diagonalization with overlap

---- Real-time Memory Report at c_bands before calling an iterative solver
           267 MiB given to the printing process from OS
             0 MiB allocation reported by mallinfo(arena+hblkhd)
          4528 MiB available memory on the node where the printing process lives
------------------
     ethr =  1.69E-07,  avg # of iterations =  2.0

     negative rho (up, down):  5.622E-04 0.000E+00

     total cpu time spent up to now is       23.1 secs

     total energy              =     -31.79560996 Ry
     estimated scf accuracy    <       0.00000725 Ry

     iteration #  3     ecut=    50.00 Ry     beta= 0.70
     Davidson diagonalization with overlap

---- Real-time Memory Report at c_bands before calling an iterative solver
           267 MiB given to the printing process from OS
             0 MiB allocation reported by mallinfo(arena+hblkhd)
          4415 MiB available memory on the node where the printing process lives
------------------
     ethr =  9.07E-08,  avg # of iterations =  2.0

     negative rho (up, down):  5.621E-04 0.000E+00

     total cpu time spent up to now is       24.2 secs

     total energy              =     -31.79561136 Ry
     estimated scf accuracy    <       0.00000003 Ry

     iteration #  4     ecut=    50.00 Ry     beta= 0.70
     Davidson diagonalization with overlap

---- Real-time Memory Report at c_bands before calling an iterative solver
           267 MiB given to the printing process from OS
             0 MiB allocation reported by mallinfo(arena+hblkhd)
          4402 MiB available memory on the node where the printing process lives
------------------
     ethr =  3.60E-10,  avg # of iterations =  2.0

     negative rho (up, down):  5.622E-04 0.000E+00

     total cpu time spent up to now is       25.2 secs

     total energy              =     -31.79561136 Ry
     estimated scf accuracy    <       0.00000001 Ry

     iteration #  5     ecut=    50.00 Ry     beta= 0.70
     Davidson diagonalization with overlap

---- Real-time Memory Report at c_bands before calling an iterative solver
           267 MiB given to the printing process from OS
             0 MiB allocation reported by mallinfo(arena+hblkhd)
          4480 MiB available memory on the node where the printing process lives
------------------
     ethr =  1.39E-10,  avg # of iterations =  2.0

     negative rho (up, down):  5.622E-04 0.000E+00

     total cpu time spent up to now is       26.2 secs

     total energy              =     -31.79561136 Ry
     estimated scf accuracy    <          6.0E-10 Ry

     iteration #  6     ecut=    50.00 Ry     beta= 0.70
     Davidson diagonalization with overlap

---- Real-time Memory Report at c_bands before calling an iterative solver
           269 MiB given to the printing process from OS
             0 MiB allocation reported by mallinfo(arena+hblkhd)
          4500 MiB available memory on the node where the printing process lives
------------------
     ethr =  7.54E-12,  avg # of iterations =  2.0

     negative rho (up, down):  5.622E-04 0.000E+00

     total cpu time spent up to now is       27.2 secs

     End of self-consistent calculation

          k = 0.0000 0.0000 0.0000 ( 47833 PWs)   bands (ev):

   -21.0257 -11.1118 -11.1088  -6.0677

     occupation numbers 
     1.0000   1.0000   1.0000   1.0000

     highest occupied level (ev):    -6.0677

!    total energy              =     -31.79561136 Ry
     total all-electron energy =      -113.094397 Ry
     estimated scf accuracy    <          1.4E-11 Ry

     The total energy is the sum of the following terms:
     one-electron contribution =     -51.17006471 Ry
     hartree contribution      =      26.80260228 Ry
     xc contribution           =      -7.88255419 Ry
     ewald contribution        =       8.42897302 Ry
     one-center paw contrib.   =      -7.97456776 Ry
      -> PAW hartree energy AE =      17.34586631 Ry
      -> PAW hartree energy PS =     -17.32451608 Ry
      -> PAW xc energy AE      =     -13.66734594 Ry
      -> PAW xc energy PS      =       5.67182758 Ry
      -> total E_H with PAW    =      26.82395251 Ry
      -> total E_XC with PAW   =     -15.87807256 Ry

     convergence has been achieved in   6 iterations

     negative rho (up, down):  5.622E-04 0.000E+00

     Forces acting on atoms (cartesian axes, Ry/au):

     atom    1 type  1   force =     0.00000000   -0.00080228    0.00083167
     atom    2 type  2   force =     0.00000000    0.00075565   -0.00006114
     atom    3 type  2   force =    -0.00000690    0.00002332   -0.00038527
     atom    4 type  2   force =     0.00000690    0.00002332   -0.00038527
     The non-local contrib.  to forces
     atom    1 type  1   force =     0.00000000   -0.00060762    1.50677421
     atom    2 type  2   force =     0.00000000   -0.08812303   -0.03311016
     atom    3 type  2   force =    -0.07618383    0.04400306   -0.03303178
     atom    4 type  2   force =     0.07618383    0.04400306   -0.03303178
     The ionic contribution  to forces
     atom    1 type  1   force =    -0.00000000   -0.00117513   -3.05605607
     atom    2 type  2   force =    -0.00000000    2.82318968    1.01974312
     atom    3 type  2   force =     2.44284187   -1.41100727    1.01815647
     atom    4 type  2   force =    -2.44284187   -1.41100727    1.01815647
     The local contribution  to forces
     atom    1 type  1   force =     0.00000000    0.00095551    1.57223674
     atom    2 type  2   force =     0.00000000   -2.73430979   -0.98669291
     atom    3 type  2   force =    -2.36666423    1.36702724   -0.98550889
     atom    4 type  2   force =     2.36666423    1.36702724   -0.98550889
     The core correction contribution to forces
     atom    1 type  1   force =     0.00000000    0.00002281   -0.02212349
     atom    2 type  2   force =     0.00000000    0.00000000    0.00000000
     atom    3 type  2   force =     0.00000000    0.00000000    0.00000000
     atom    4 type  2   force =     0.00000000    0.00000000    0.00000000
     The Hubbard contrib.    to forces
     atom    1 type  1   force =     0.00000000    0.00000000    0.00000000
     atom    2 type  2   force =     0.00000000    0.00000000    0.00000000
     atom    3 type  2   force =     0.00000000    0.00000000    0.00000000
     atom    4 type  2   force =     0.00000000    0.00000000    0.00000000
     The SCF correction term to forces
     atom    1 type  1   force =    -0.00000000    0.00000244    0.00000102
     atom    2 type  2   force =    -0.00000000   -0.00000092   -0.00000045
     atom    3 type  2   force =    -0.00000070    0.00000058   -0.00000033
     atom    4 type  2   force =     0.00000070    0.00000058   -0.00000033

     Total force =     0.001486     Total SCF correction =     0.000003
     Energy error            =      1.5E-05 Ry
     Gradient error          =      8.3E-04 Ry/Bohr

     bfgs converged in   3 scf cycles and   2 bfgs steps
     (criteria: energy <  1.0E-04 Ry, force <  1.0E-03 Ry/Bohr)

     End of BFGS Geometry Optimization

     Final energy             =     -31.7956113626 Ry

     File ./tmp/nh3.bfgs deleted, as requested
Begin final coordinates

ATOMIC_POSITIONS (angstrom)
N                0.0000000000       -0.0000403563       -0.0070865395
H                0.0000000000        0.9447209134        0.3833677511
H                0.8185989373       -0.4728402785        0.3833593942
H               -0.8185989373       -0.4728402785        0.3833593942
End final coordinates



     Writing all to output data dir ./tmp/nh3.save/ :
     XML data file, charge density, pseudopotentials, collected wavefunctions

     init_run     :      1.37s CPU      1.58s WALL (       1 calls)
     electrons    :     18.54s CPU     22.74s WALL (       3 calls)
     update_pot   :      0.74s CPU      0.82s WALL (       2 calls)
     forces       :      1.76s CPU      2.16s WALL (       3 calls)

     Called by init_run:
     wfcinit      :      0.04s CPU      0.04s WALL (       1 calls)
     wfcinit:atom :      0.00s CPU      0.00s WALL (       1 calls)
     wfcinit:wfcr :      0.03s CPU      0.04s WALL (       1 calls)
     potinit      :      0.57s CPU      0.63s WALL (       1 calls)
     hinit0       :      0.33s CPU      0.35s WALL (       1 calls)

     Called by electrons:
     c_bands      :      1.56s CPU      1.65s WALL (      22 calls)
     sum_band     :      5.53s CPU      7.32s WALL (      22 calls)
     v_of_rho     :      6.83s CPU      7.45s WALL (      25 calls)
     v_h          :      0.60s CPU      0.71s WALL (      25 calls)
     v_xc         :      6.99s CPU      7.59s WALL (      28 calls)
     newd         :      3.27s CPU      5.10s WALL (      25 calls)
     PAW_pot      :      0.39s CPU      0.40s WALL (      27 calls)
     mix_rho      :      1.31s CPU      1.36s WALL (      22 calls)

     Called by c_bands:
     init_us_2    :      0.09s CPU      0.09s WALL (      50 calls)
     cegterg      :      1.50s CPU      1.58s WALL (      22 calls)

     Called by sum_band:
     sum_band:wei :      0.00s CPU      0.00s WALL (      22 calls)
     sum_band:loo :      0.20s CPU      0.21s WALL (      22 calls)
     sum_band:buf :      0.00s CPU      0.00s WALL (      22 calls)
     sum_band:ini :      0.04s CPU      0.04s WALL (      22 calls)
     sum_band:cal :      0.03s CPU      0.03s WALL (      24 calls)
     sum_band:bec :      0.00s CPU      0.00s WALL (      24 calls)
     addusdens    :      4.34s CPU      5.95s WALL (      22 calls)
                                        0.00s GPU  (      22 calls)
     addusd:skk   :      0.08s CPU      0.09s WALL (      44 calls)
                                        0.00s GPU  (      44 calls)

     Called by *egterg:
     cdiaghg      :      0.00s CPU      0.00s WALL (      65 calls)
     cegterg:over :      0.04s CPU      0.04s WALL (      45 calls)
     cegterg:upda :      0.02s CPU      0.02s WALL (      45 calls)
     cegterg:last :      0.04s CPU      0.04s WALL (      45 calls)
     h_psi        :      1.35s CPU      1.44s WALL (      68 calls)
     s_psi        :      0.04s CPU      0.04s WALL (      68 calls)
     g_psi        :      0.00s CPU      0.00s WALL (      45 calls)

     Called by h_psi:
     h_psi:calbec :      0.08s CPU      0.09s WALL (      68 calls)
     vloc_psi     :      1.22s CPU      1.30s WALL (      68 calls)
     add_vuspsi   :      0.04s CPU      0.04s WALL (      68 calls)

     General routines
     calbec       :      0.12s CPU      0.12s WALL (     104 calls)
     fft          :      5.94s CPU      6.49s WALL (     354 calls)
     ffts         :      0.34s CPU      0.38s WALL (      47 calls)
     fftw         :      0.80s CPU      0.88s WALL (     616 calls)
     interpolate  :      0.82s CPU      0.87s WALL (      25 calls)

     Parallel routines

     PAW routines
     PAW_pot      :      0.39s CPU      0.40s WALL (      27 calls)
     PAW_symme    :      0.00s CPU      0.00s WALL (      49 calls)

     PWSCF        :     22.92s CPU     28.03s WALL


   This run was terminated on:   9: 3:14   5Jul2025            

=------------------------------------------------------------------------------=
   JOB DONE.
=------------------------------------------------------------------------------=
